ITEM: TIMESTEP
10000000
ITEM: NUMBER OF ATOMS
17989
ITEM: BOX BOUNDS pp pp pp
8.9912044679745584e+00 5.1008795532023413e+01
8.9912044679745584e+00 5.1008795532023413e+01
-3.3026386596077515e+01 9.3026386596080542e+01
ITEM: ATOMS id element mol type mass x y z vx vy vz fx fy fz q 
8831 H 191 412 1.008 11.991 12.6063 -27.9252 -0.0137165 -0.00694795 0.00203723 -8.26031 -2.87671 2.32918 0.4238 
9260 H 334 412 1.008 13.6587 11.1124 -29.7007 -0.00306411 0.000208884 -0.0277617 3.72868 1.70278 2.39365 0.4238 
9167 H 303 412 1.008 10.7235 12.3759 -16.2081 0.00154372 -0.00376747 0.00607468 -5.16626 -2.5418 -0.10946 0.4238 
14879 H 2142 412 1.008 21.4378 23.8426 -23.9754 0.0065119 -0.00214406 -0.00313502 -0.497703 2.37666 1.88248 0.4238 
10157 H 633 412 1.008 17.4125 29.1673 -32.2268 -0.00848854 0.00115401 0.00676652 -1.35439 1.17063 2.23164 0.4238 
14733 H 2093 412 1.008 22.9771 9.17854 -16.5086 0.0108765 0.0170944 -0.0128724 2.59443 -2.25914 3.31204 0.4238 
14231 H 1926 412 1.008 9.27957 15.2199 -16.0999 0.00593854 -0.0010838 0.0021396 -1.60232 -0.763607 -3.3154 0.4238 
14878 O 2142 411 15.9994 20.8317 24.2719 -24.6451 0.00852137 -0.00484618 -0.00668034 3.0801 -8.77197 -8.46281 -0.8476 
9258 O 334 411 15.9994 14.5197 10.6806 -29.9695 0.00588064 0.000194597 0.000837426 -6.72676 0.483162 -2.61189 -0.8476 
8830 H 191 412 1.008 12.8656 11.3344 -27.3923 0.0181015 0.00949722 -0.0109906 -6.29406 0.210781 -0.0995749 0.4238 
11894 H 1212 412 1.008 10.7257 10.3622 -32.2321 0.0265238 -0.00233451 -0.00886825 -0.395286 -2.39962 1.37799 0.4238 
8829 O 191 411 15.9994 12.2627 11.6636 -28.119 -0.00387193 -0.00390215 0.00112321 -4.80585 10.0086 -34.7934 -0.8476 
9259 H 334 412 1.008 14.8059 11.0337 -30.8602 0.0396837 0.00623113 0.0140902 -2.32283 2.49171 3.86803 0.4238 
10368 O 704 411 15.9994 23.0777 11.2657 -26.4724 -0.0107783 0.00326001 -0.00329524 -6.26635 -3.15738 8.87927 -0.8476 
15617 H 2388 412 1.008 30.0128 12.7421 -31.9155 0.0115048 -0.0207001 0.0247434 -6.40778 1.63333 0.663048 0.4238 
12246 O 1330 411 15.9994 19.1894 28.1378 -21.4282 0.00346866 -0.00119651 0.00432002 3.50108 7.75658 -2.88103 -0.8476 
14006 H 1851 412 1.008 9.67702 12.3616 -30.216 -0.00607024 -0.0179052 0.010929 -1.34133 -9.15614 3.55056 0.4238 
17269 O 2939 411 15.9994 24.8147 10.8101 -28.7607 -0.00111351 9.93636e-05 0.00112912 2.81007 -14.1157 -0.907181 -0.8476 
15881 H 2476 412 1.008 15.6572 15.8336 -24.0188 0.0160064 -0.0118038 0.00077765 -0.919838 1.85614 1.54642 0.4238 
14005 O 1851 411 15.9994 10.5947 12.0375 -30.446 -0.00194996 -0.00239034 0.00566743 5.62754 9.67169 -6.40441 -0.8476 
11317 H 1020 412 1.008 10.7115 14.6801 -32.6863 -0.0216723 -0.00665117 -0.00745683 -2.94908 -2.16712 3.47809 0.4238 
11316 O 1020 411 15.9994 11.079 13.7501 -32.6732 -0.00407045 0.000434784 0.00111903 3.99321 2.81952 3.52135 -0.8476 
11318 H 1020 412 1.008 10.7794 13.2851 -31.8401 0.0139261 0.00616851 0.0107809 3.6483 -1.33052 -0.701905 0.4238 
14007 H 1851 412 1.008 11.1305 11.9316 -29.6083 0.00741334 0.0150037 0.00190437 -0.298196 -5.88615 -1.97539 0.4238 
11245 H 996 412 1.008 16.948 9.09325 -22.1577 0.00790107 -0.0037201 0.00880487 0.564278 -1.62683 2.28701 0.4238 
16571 H 2706 412 1.008 22.67 25.5443 -31.9879 0.00619498 0.0079833 0.0269316 -0.0495948 3.71669 4.17446 0.4238 
14426 H 1991 412 1.008 24.6306 17.6019 -17.7294 0.00701088 0.016648 0.0175045 0.443435 2.81269 6.6986 0.4238 
15880 O 2476 411 15.9994 16.356 16.5451 -24.0927 0.00379827 0.000678529 0.00537621 2.05725 -7.17945 -1.81579 -0.8476 
15882 H 2476 412 1.008 17.1222 16.3238 -23.4895 -0.000727955 0.019581 0.0180508 -2.72863 -0.290819 1.42326 0.4238 
14898 H 2148 412 1.008 9.19221 19.3249 -26.0248 -0.00141973 0.00229145 -0.0061239 1.95979 6.84704 -3.63134 0.4238 
11892 O 1212 411 15.9994 10.5232 9.44837 -32.5841 -0.0026719 0.00282619 -0.00547088 -2.94602 7.60303 -1.86807 -0.8476 
15772 O 2440 411 15.9994 19.9248 11.0597 -27.281 0.00169976 -0.00222714 -0.00573358 -11.3458 10.9492 6.00472 -0.8476 
15774 H 2440 412 1.008 19.1501 11.6921 -27.2783 0.00299922 -0.000807822 0.048914 -2.50459 -12.9145 -2.53759 0.4238 
15773 H 2440 412 1.008 19.5929 10.1266 -27.4188 -0.00337638 0.00655279 -0.0524402 5.05874 5.56332 -6.51295 0.4238 
15262 O 2270 411 15.9994 15.0166 29.0377 -25.6748 0.00524899 -0.00393475 0.00724486 10.4597 2.12926 5.49165 -0.8476 
11751 O 1165 411 15.9994 20.9624 10.5737 -24.1038 0.00126274 0.00208417 0.00424072 4.81216 -5.29664 -4.14688 -0.8476 
9465 O 403 411 15.9994 20.7054 13.7201 -27.4447 -0.000830247 0.00434807 -0.00237486 -0.515207 -5.50719 0.873038 -0.8476 
10862 H 868 412 1.008 21.942 12.8728 -25.3592 -0.0066642 -0.0129238 0.0129709 5.1482 -2.89863 1.55329 0.4238 
11753 H 1165 412 1.008 21.6732 10.5607 -24.8071 0.0314407 0.0206736 0.0343685 -5.52401 1.62879 1.23178 0.4238 
9466 H 403 412 1.008 20.9858 13.9751 -26.5193 0.00579198 0.0202392 -0.0087736 -0.205505 2.65873 -1.60037 0.4238 
11752 H 1165 412 1.008 20.6192 11.5066 -23.994 -0.00420982 -0.00103458 0.0135056 2.55827 -0.819605 8.08979 0.4238 
9467 H 403 412 1.008 20.4273 12.7596 -27.4559 0.00891123 0.00135538 0.0139104 4.83703 -0.853366 2.22224 0.4238 
15691 O 2413 411 15.9994 20.227 17.2826 -32.4725 -0.00091983 0.00276632 -0.00313553 -3.03047 -7.32701 2.41326 -0.8476 
14744 H 2097 412 1.008 21.0574 15.5208 -24.6402 -0.0156332 -0.00185429 0.0206522 -1.24618 1.22888 1.86731 0.4238 
10860 O 868 411 15.9994 22.2228 13.517 -24.6478 0.00923973 -0.00370323 -0.00165082 0.817551 -0.640012 -14.2389 -0.8476 
10861 H 868 412 1.008 23.1028 13.2315 -24.2682 0.0178574 0.0013579 -0.0178006 -1.06314 3.61832 2.14267 0.4238 
16425 H 2657 412 1.008 28.5651 20.5395 -30.8197 0.00309147 0.0262433 0.00117837 -1.27225 1.06798 -2.69408 0.4238 
16620 H 2722 412 1.008 12.4439 29.8051 -16.7037 -0.000596017 0.0094935 -0.0145793 5.48906 -1.81904 -2.43697 0.4238 
15693 H 2413 412 1.008 20.7178 18.1254 -32.2518 -0.00402923 0.00578361 -0.00775458 -2.70827 0.928363 0.000470834 0.4238 
9814 H 519 412 1.008 13.5608 22.5725 -32.3273 -0.0201495 0.0257858 -0.00376207 1.18168 -2.64296 3.41464 0.4238 
11273 H 1005 412 1.008 26.0124 15.8804 -19.5565 -0.0348551 0.013088 -0.023236 -8.12145 -1.13543 5.66804 0.4238 
13819 O 1789 411 15.9994 21.818 13.3063 -32.2543 -0.00103694 -0.00267389 -0.000569384 -8.86282 11.4639 -16.9842 -0.8476 
16572 H 2706 412 1.008 24.0572 26.0682 -32.6717 -0.00146812 0.0076514 0.0111097 2.90742 -1.53007 7.24993 0.4238 
10414 H 719 412 1.008 28.4324 9.61542 -16.2835 0.0219703 -0.00224441 -0.00721165 4.0992 -0.328565 -3.06954 0.4238 
16423 O 2657 411 15.9994 29.2811 20.4048 -31.5047 -0.000745696 0.0038984 0.00157253 -7.84252 -8.11365 3.81612 -0.8476 
13821 H 1789 412 1.008 21.5495 13.5242 -31.316 0.0163788 -0.00642767 0.00522972 10.0132 -11.24 3.8015 0.4238 
12391 H 1378 412 1.008 17.6682 15.1018 -21.192 0.00364732 -0.00701034 -0.00256634 1.78108 -8.42659 5.81102 0.4238 
15692 H 2413 412 1.008 20.5526 16.5432 -31.8833 -0.0207289 0.0146039 0.0226648 -0.518111 2.43494 -0.932927 0.4238 
9791 H 511 412 1.008 12.4955 29.0108 -32.9275 0.001029 -0.00501407 0.00429067 1.88076 -0.239242 3.66463 0.4238 
8935 H 226 412 1.008 25.5795 24.4996 -31.6596 -0.00031858 -0.00737464 -0.00154649 -2.80087 -2.13309 -0.897017 0.4238 
15618 H 2388 412 1.008 29.6364 11.3388 -32.661 0.00204848 -0.0174807 0.0234456 -3.44946 -1.83075 6.02386 0.4238 
12511 H 1418 412 1.008 25.7476 18.5266 -25.875 0.0148679 -0.00247988 0.00236433 0.0217058 2.34235 -4.66663 0.4238 
15616 O 2388 411 15.9994 29.2745 12.1005 -32.1236 -0.000122203 0.00299655 -0.00712776 9.64275 5.73934 -7.21335 -0.8476 
12510 O 1418 411 15.9994 25.6131 17.6986 -26.4192 -0.00180289 -0.000665112 0.00372308 -1.38407 -0.551998 3.73671 -0.8476 
15770 H 2439 412 1.008 15.1048 23.716 -15.4896 -0.0171484 -0.00776094 -0.00459646 1.48549 0.453656 0.2518 0.4238 
16017 H 2521 412 1.008 27.9977 14.7657 -31.0963 -0.0270068 0.00741276 -0.00776864 1.06501 -1.79951 3.83637 0.4238 
16016 H 2521 412 1.008 28.5209 15.6413 -29.821 0.0203518 -0.0120255 -0.0137892 -5.93029 2.72155 -1.425 0.4238 
16015 O 2521 411 15.9994 28.0299 14.8153 -30.0981 0.00731735 -0.00617641 -0.00818788 -5.01962 -9.1816 8.40201 -0.8476 
12879 O 1541 411 15.9994 26.639 12.365 -26.4007 0.00364367 -0.00343205 -0.00754262 -3.12151 2.93049 3.4455 -0.8476 
13902 H 1816 412 1.008 28.2583 21.4153 -26.2221 0.00707612 0.0153879 0.000286642 3.94075 -0.355431 0.235166 0.4238 
12881 H 1541 412 1.008 26.683 12.7718 -27.3131 -0.00380985 -0.00930026 -0.010516 1.09169 -2.68636 -0.738918 0.4238 
12880 H 1541 412 1.008 26.4428 13.0775 -25.7271 -0.00968017 -0.00214373 -0.0127894 0.00680703 1.49308 -1.84806 0.4238 
16799 H 2782 412 1.008 21.1009 11.6527 -32.7383 0.00829311 0.000260783 0.00113233 6.05182 -0.741478 -2.37406 0.4238 
10267 H 670 412 1.008 18.8046 14.1 -32.621 0.0311351 -0.00578735 -0.00316419 0.446519 -2.0714 1.33274 0.4238 
9902 H 548 412 1.008 28.9426 15.3381 -25.4823 0.00108103 0.00405566 -0.0118275 0.462172 -0.378414 0.186794 0.4238 
9349 H 364 412 1.008 10.3134 19.205 -31.4049 -0.000440774 -0.00167587 -0.00334541 -2.27817 -1.62579 -2.41021 0.4238 
17122 O 2890 411 15.9994 27.1056 15.7527 -25.0216 -0.00633641 -0.000825763 -0.00480822 8.91368 3.1118 -2.77916 -0.8476 
10266 O 670 411 15.9994 18.7971 13.9458 -31.633 0.0042679 -0.00426459 -0.00313448 -3.79236 0.0933737 -1.82318 -0.8476 
9815 H 519 412 1.008 14.3632 22.7238 -30.9131 -0.00218804 -0.0135163 -0.00972267 -0.806078 1.49995 0.855723 0.4238 
10415 H 719 412 1.008 27.4751 10.9121 -16.5459 0.00415461 -0.0127342 0.00610643 1 -1.84529 6.3347 0.4238 
12419 H 1387 412 1.008 22.2691 10.4076 -31.059 0.0110422 0.026821 -0.00971359 4.56668 2.47572 0.658432 0.4238 
12417 O 1387 411 15.9994 23.1733 10.103 -30.7596 -0.00409544 -0.0100369 -0.0016135 -6.8583 -4.51614 -5.84433 -0.8476 
9651 O 465 411 15.9994 26.0685 13.0028 -28.9711 -0.00615535 -0.00120806 -0.00671702 17.3543 21.0328 7.23893 -0.8476 
13361 H 1636 412 1.008 10.3591 22.273 -24.5029 -0.0134976 0.00120142 0.00125296 7.29865 -6.47429 -6.05505 0.4238 
17124 H 2890 412 1.008 26.5704 16.5282 -25.3563 -0.00933703 0.00198576 0.00645753 0.472386 -2.92661 -6.21855 0.4238 
16488 H 2678 412 1.008 22.6682 23.0586 -31.3161 0.00495028 -0.0131934 0.0117223 0.41942 1.37256 -1.44709 0.4238 
12418 H 1387 412 1.008 23.4503 9.30494 -31.2947 -0.01603 0.000896898 -0.0240703 2.70043 4.73097 -2.76884 0.4238 
9653 H 465 412 1.008 25.3868 13.3809 -28.3447 0.00196676 -0.0328203 0.0213237 -0.40754 3.31742 -9.51884 0.4238 
12362 H 1368 412 1.008 28.0815 10.5773 -29.2744 -0.0279094 -0.0018006 0.0168021 -1.41219 -3.73617 -1.69002 0.4238 
12360 O 1368 411 15.9994 28.5269 9.75268 -28.9258 -0.0021333 0.00689336 0.00440621 -2.44334 4.10715 -0.463034 -0.8476 
9652 H 465 412 1.008 26.7249 13.7153 -29.219 -0.0162777 0.014486 0.011475 -4.25069 0.61517 -9.08021 0.4238 
14230 O 1926 411 15.9994 9.78658 14.3648 -16.2088 0.00922083 0.000659002 0.0037652 7.65259 0.61043 7.5282 -0.8476 
11827 H 1190 412 1.008 11.9854 18.753 -27.3953 0.0134325 0.00191537 0.0170513 -3.54099 -8.62739 -6.76486 0.4238 
10294 H 679 412 1.008 16.7284 14.1944 -31.3322 -0.00253929 0.0144346 0.0214506 0.00192624 -1.32983 -4.57338 0.4238 
10293 O 679 411 15.9994 15.7928 14.309 -31.6661 0.00429776 0.00510571 -0.000977329 0.805122 -11.6364 1.52573 -0.8476 
10295 H 679 412 1.008 15.5068 13.4804 -32.1473 0.021624 -0.000388514 -0.00183518 -2.29933 0.231644 1.49128 0.4238 
13941 H 1829 412 1.008 11.3165 27.6949 -20.87 0.0208998 -0.0183792 -0.0125067 2.10948 -0.441431 -1.68747 0.4238 
11911 H 1218 412 1.008 11.4013 20.3984 -30.6587 0.000948917 0.00779623 -0.009508 -2.3136 7.75856 -4.06578 0.4238 
11912 H 1218 412 1.008 12.5464 21.5179 -30.339 -0.00138269 0.00649259 0.00333971 -1.85968 4.63938 3.90898 0.4238 
13379 H 1642 412 1.008 15.418 15.3468 -30.3079 0.00529728 -0.0057607 0.00362921 1.63635 2.45334 -3.11493 0.4238 
12429 O 1391 411 15.9994 13.6414 22.4346 -28.0155 0.00408738 0.00620825 -0.00301855 10.138 1.66871 4.52005 -0.8476 
12431 H 1391 412 1.008 14.36 22.6782 -28.6669 -0.00174877 0.0262349 -0.00197518 -0.772415 -1.65217 -0.314836 0.4238 
12430 H 1391 412 1.008 13.4478 23.2177 -27.4246 -0.00472635 -0.00551569 0.00965119 -0.29145 1.68317 -3.64625 0.4238 
11656 H 1133 412 1.008 11.8977 21.9451 -26.0399 -0.0253208 0.0218761 0.0170158 -9.92863 -1.34342 3.29151 0.4238 
9348 O 364 411 15.9994 10.6816 19.8407 -32.0834 0.00195786 -0.00394936 -0.00417409 -4.28733 -7.25722 -2.90182 -0.8476 
11655 O 1133 411 15.9994 11.217 21.6211 -26.6969 -0.000552224 -0.00465516 0.00452862 1.15109 -4.73271 -34.321 -0.8476 
11657 H 1133 412 1.008 11.6653 21.414 -27.5665 0.0184744 0.0435535 0.00287086 0.0875544 1.46431 4.88139 0.4238 
11826 O 1190 411 15.9994 12.7864 18.757 -27.9939 0.00273459 -0.00595007 0.00261075 6.4245 10.5465 2.40327 -0.8476 
11910 O 1218 411 15.9994 11.8269 20.9491 -29.9406 -0.0019596 0.0023561 -0.00363118 9.36767 -10.0794 6.21998 -0.8476 
11726 H 1156 412 1.008 15.569 18.7986 -32.0974 0.00401765 0.00379552 -0.0533936 -1.48937 6.09551 -0.225059 0.4238 
11725 H 1156 412 1.008 14.3457 19.6532 -32.7606 -0.00173289 0.0485854 0.015067 5.7326 3.91762 8.10073 0.4238 
11724 O 1156 411 15.9994 14.7496 19.3374 -31.902 0.0100665 -0.00293319 -0.00952003 0.418834 -8.22719 -6.28811 -0.8476 
16618 O 2722 411 15.9994 12.1386 28.9818 -17.1823 0.00587075 0.00227442 -0.00630318 -3.9738 -1.8 -14.0306 -0.8476 
10413 O 719 411 15.9994 28.3568 10.4915 -16.7596 0.00866634 0.000173985 -0.000615952 -5.60871 1.54452 -6.79295 -0.8476 
15123 H 2223 412 1.008 21.8126 29.865 -15.5589 -0.00911393 -0.010547 0.0173853 1.26317 1.53284 -0.313265 0.4238 
8701 H 148 412 1.008 26.9753 28.8369 -15.662 0.00407717 0.000303629 0.00221203 -4.26954 -8.49724 -1.62802 0.4238 
9676 H 473 412 1.008 11.8939 18.6255 -24.6426 -0.00994012 0.000956959 -0.00356274 7.24939 1.95872 10.0613 0.4238 
11828 H 1190 412 1.008 12.6477 19.4176 -28.7318 -0.00629184 -0.00842478 0.0020942 -0.49827 0.825477 0.752348 0.4238 
14609 H 2052 412 1.008 9.44306 25.9839 -22.4316 0.0101442 0.00629633 -0.00928036 4.8324 4.57296 1.41861 0.4238 
12644 H 1462 412 1.008 14.2594 17.5347 -25.1282 -0.00116235 -0.00448547 0.019121 0.910963 2.80414 4.79016 0.4238 
16866 H 2804 412 1.008 15.0207 20.8417 -26.8377 -0.000831103 -0.00944113 0.00057936 0.769211 0.323387 -3.37864 0.4238 
16424 H 2657 412 1.008 28.881 20.4562 -32.4197 -0.00269611 -0.00741296 0.00178277 1.93458 1.81957 -0.342241 0.4238 
13378 O 1642 411 15.9994 15.6372 16.1275 -29.7226 -0.00309712 -0.00505747 0.00582746 2.42102 4.63299 0.128086 -0.8476 
9197 H 313 412 1.008 23.8735 9.16466 -22.8859 -0.0113201 0.0139534 0.0212739 -1.02376 -2.68906 -1.09159 0.4238 
9513 O 419 411 15.9994 21.6467 24.9363 -30.2382 0.000126601 0.00193029 0.00320967 -13.5179 2.55357 -2.69042 -0.8476 
9570 O 438 411 15.9994 22.0717 13.0183 -29.6613 -0.00239946 -0.00106295 0.00354026 -0.568071 6.49246 15.0062 -0.8476 
9572 H 438 412 1.008 22.7686 12.3478 -29.4071 0.00989633 0.0119718 0.00424362 -1.33141 -1.05651 -2.42142 0.4238 
13380 H 1642 412 1.008 15.0165 16.8838 -29.9294 -0.00193294 -0.00624611 -0.00206257 -3.46651 -1.26026 5.97589 0.4238 
12492 O 1412 411 15.9994 16.648 14.7069 -27.4566 -0.0047521 -0.00328421 -0.00727717 8.88058 -3.56146 -7.89554 -0.8476 
11360 H 1034 412 1.008 18.0567 17.3339 -31.978 -0.0102894 -0.0127449 -0.0417458 -2.46505 4.88204 -3.42104 0.4238 
11358 O 1034 411 15.9994 17.1303 17.7053 -31.9147 -0.00310758 -0.00145421 -0.00320535 0.0498191 -5.92197 1.6718 -0.8476 
11956 H 1233 412 1.008 19.2191 19.9456 -30.4664 0.00343613 0.0190209 0.0127904 -1.18055 -3.35876 -2.34979 0.4238 
12494 H 1412 412 1.008 16.3163 15.1604 -28.2837 -0.0140732 0.012471 0.00513773 -4.19384 2.62621 4.40385 0.4238 
12493 H 1412 412 1.008 17.4978 15.1405 -27.1567 -0.0035599 -0.00634023 -0.00622832 -1.66123 3.37422 0.49104 0.4238 
9813 O 519 411 15.9994 13.4596 22.7025 -31.3409 -0.00786721 -0.00810522 0.00198943 4.74423 0.40461 -4.51684 -0.8476 
14745 H 2097 412 1.008 20.1 16.6178 -25.3797 0.000214756 -0.00994544 -0.0118549 -1.55228 -2.4815 1.23592 0.4238 
9216 O 320 411 15.9994 21.1828 16.1764 -29.4057 0.00356882 -0.00825567 -0.00466501 -1.67815 0.193901 -6.23792 -0.8476 
14743 O 2097 411 15.9994 20.7119 16.4586 -24.6049 -0.00679851 0.00231002 -0.00380094 -1.9834 -0.977075 -3.44405 -0.8476 
9218 H 320 412 1.008 20.3056 15.71 -29.5195 -0.00161591 -0.00397831 0.0179675 0.392723 0.743095 4.59104 0.4238 
9217 H 320 412 1.008 21.9222 15.5032 -29.4174 -0.00195081 -0.0144308 0.00202234 -0.0357608 0.450535 2.19735 0.4238 
13574 H 1707 412 1.008 21.4388 19.8131 -31.832 -0.0100527 0.00796162 -0.0123836 -0.623264 -1.74973 -0.667086 0.4238 
14067 H 1871 412 1.008 17.8498 19.5253 -28.6653 -0.00595634 -0.0192902 -0.00634153 -3.62033 -0.35227 0.850564 0.4238 
14065 O 1871 411 15.9994 17.8124 19.3644 -27.6791 0.00532423 0.00343415 -0.00221655 14.0123 -2.43608 -8.92763 -0.8476 
14066 H 1871 412 1.008 18.73 19.1563 -27.3403 0.00608676 -0.00762087 -0.0110996 0.929338 -1.77881 -3.1244 0.4238 
13573 O 1707 411 15.9994 20.9749 19.6413 -30.9629 -0.00248145 -0.00245864 -0.0103993 4.58486 8.10376 -3.25425 -0.8476 
13575 H 1707 412 1.008 21.5852 19.878 -30.2069 -0.0082496 0.0209722 -0.0130657 -0.225307 -1.75672 -0.959143 0.4238 
17239 O 2929 411 15.9994 24.5837 20.2805 -25.715 -0.00488664 -0.0030589 0.00877011 0.808261 -6.97519 1.65526 -0.8476 
17240 H 2929 412 1.008 24.5221 19.8754 -24.8028 -0.00797203 -0.014071 0.00367607 -3.35324 2.2143 0.637005 0.4238 
12819 O 1521 411 15.9994 20.5907 18.5537 -27.8793 -0.00445126 -0.00756881 -0.00186541 -2.24151 -1.1527 -4.51931 -0.8476 
12821 H 1521 412 1.008 20.8244 17.7521 -28.4296 -0.0146016 -0.0330248 0.0309136 0.537614 3.43455 2.8915 0.4238 
12820 H 1521 412 1.008 21.3455 19.209 -27.9075 0.011088 -0.0259859 -0.014296 -0.956229 -1.58618 5.68074 0.4238 
16035 H 2527 412 1.008 21.174 21.4336 -27.3885 0.00447104 0.0112147 -0.00851662 -0.3479 -2.23316 3.36279 0.4238 
16783 O 2777 411 15.9994 22.595 18.3206 -24.3663 0.0055819 -0.00606588 0.00689085 9.89835 -2.79185 9.94229 -0.8476 
16784 H 2777 412 1.008 21.8245 17.696 -24.493 -0.00205597 0.00011338 0.0228033 0.908626 1.54319 -2.92102 0.4238 
10967 H 903 412 1.008 20.2838 24.0908 -26.9139 -0.000802998 0.0131339 0.00279978 2.31282 3.81452 0.867296 0.4238 
13561 O 1703 411 15.9994 22.4118 29.1107 -22.0345 -0.000986747 0.00447338 -0.00298908 9.64885 -17.0033 10.7146 -0.8476 
11359 H 1034 412 1.008 16.6466 17.267 -31.1571 0.0133074 -0.0168403 -0.00164288 4.33647 -0.0374779 1.44604 0.4238 
11957 H 1233 412 1.008 17.8513 19.49 -31.2334 0.0246566 -0.007896 -0.00912147 -2.69194 -2.38701 4.97376 0.4238 
11955 O 1233 411 15.9994 18.2199 19.9523 -30.427 0.00254913 0.00591863 -0.00692762 4.68441 2.77182 1.43946 -0.8476 
9515 H 419 412 1.008 21.2265 24.5712 -29.4075 0.0136686 0.027275 0.0211629 6.24618 1.51407 0.676974 0.4238 
16865 H 2804 412 1.008 16.4946 20.1811 -27.0785 0.00491961 0.00217897 0.00389036 0.486822 -2.57247 4.66064 0.4238 
16864 O 2804 411 15.9994 15.9416 20.7406 -26.4611 -0.00241562 -0.00653465 0.00522356 -13.8933 3.35461 6.34671 -0.8476 
14686 O 2078 411 15.9994 18.3772 16.8097 -26.2587 -0.000244239 -0.00173254 -0.00462348 -7.65149 -5.19278 3.64772 -0.8476 
14688 H 2078 412 1.008 17.9292 17.5288 -26.7899 0.0113711 -0.0117959 -0.0280168 4.34815 -0.275267 -0.216121 0.4238 
14687 H 2078 412 1.008 17.7464 16.4677 -25.5622 -0.0115853 0.0193133 -0.00460106 -1.77496 5.73981 0.0558864 0.4238 
12080 H 1274 412 1.008 19.7997 18.5688 -23.9043 -0.02748 -0.0159739 0.0132967 1.12061 2.30914 1.05874 0.4238 
12078 O 1274 411 15.9994 19.7292 19.3794 -23.323 0.00231582 -0.00469589 0.00119961 -2.37192 -4.66617 -4.44403 -0.8476 
9571 H 438 412 1.008 21.5766 13.3111 -28.8433 0.0143831 0.0154387 0.00780298 -0.496083 -1.31812 -0.400703 0.4238 
12512 H 1418 412 1.008 24.9357 17.8754 -27.1333 -0.0327001 -0.0018356 0.0327207 3.99255 -3.0742 1.67913 0.4238 
14459 H 2002 412 1.008 26.7971 20.8314 -28.6297 -0.00445852 -0.0038711 0.0043357 -0.14948 -0.700313 -0.274695 0.4238 
10113 O 619 411 15.9994 23.6717 23.0495 -26.481 -0.00311958 0.0156561 0.000349835 4.59323 -1.71714 3.15722 -0.8476 
10115 H 619 412 1.008 24.5963 22.9126 -26.8364 -0.00474188 -0.00830843 0.00530759 -2.37309 2.90861 -3.80305 0.4238 
12401 H 1381 412 1.008 23.3031 16.6494 -23.4094 -0.00310664 0.00332205 0.0139427 1.03033 -2.57864 -3.54701 0.4238 
12400 H 1381 412 1.008 23.2587 15.33 -22.4482 -0.0116685 -0.0183594 -0.0161419 -0.177957 4.585 2.58979 0.4238 
14458 O 2002 411 15.9994 26.7386 20.5189 -29.5778 0.000178333 0.00898136 -0.000182843 8.68977 3.77878 -1.59582 -0.8476 
10114 H 619 412 1.008 23.7213 23.4826 -25.581 0.00473151 -0.0227228 0.0184709 -4.30874 5.08549 -7.04572 0.4238 
16034 H 2527 412 1.008 22.7743 21.658 -27.153 0.00802127 -0.0154547 -0.00718462 -2.09113 -0.224211 5.86603 0.4238 
16033 O 2527 411 15.9994 22.0563 20.9745 -27.285 -0.00445264 -0.00389392 0.000682419 2.50808 -1.45841 -9.66707 -0.8476 
17241 H 2929 412 1.008 23.8118 19.9707 -26.2701 -0.0133917 0.0188073 0.0084534 -2.41604 6.07878 2.29615 0.4238 
9900 O 548 411 15.9994 29.9126 15.1932 -25.6774 0.00354955 -0.00411075 0.00650372 -6.51423 7.32081 4.34404 -0.8476 
17540 H 3029 412 1.008 9.14406 28.9819 -28.7429 0.00983426 0.00905078 0.00655611 0.673084 0.151552 1.80851 0.4238 
14460 H 2002 412 1.008 25.7794 20.4829 -29.8584 -0.000251599 -0.0176419 0.00476492 3.00248 -3.33672 -1.72913 0.4238 
16785 H 2777 412 1.008 22.5884 18.6726 -23.4303 0.009325 0.0186393 -0.00240038 -6.16482 4.4026 -2.98174 0.4238 
10716 O 820 411 15.9994 9.37181 28.771 -25.9092 0.00289458 0.000343632 0.0108129 14.487 5.46423 5.43932 -0.8476 
12201 O 1315 411 15.9994 25.1648 28.4076 -19.3053 0.000520686 -0.000391971 -0.0104225 3.59639 1.75647 5.68474 -0.8476 
12399 O 1381 411 15.9994 23.8525 16.0242 -22.8551 -0.00906328 -0.00485338 0.0106347 -2.63195 -2.9503 -2.52242 -0.8476 
14414 H 1987 412 1.008 24.2756 20.629 -31.4639 -0.00161306 -0.00490593 0.00240923 2.78871 1.35539 0.6101 0.4238 
10751 H 831 412 1.008 19.9667 17.1231 -17.8399 0.00951367 -0.0370833 0.0219199 -2.68259 -2.22808 -2.40127 0.4238 
9029 H 257 412 1.008 28.1768 29.6032 -22.6457 0.00700129 0.00014174 -0.00739774 1.65617 1.69924 7.26615 0.4238 
10776 O 840 411 15.9994 18.6813 9.28149 -29.1474 -0.00191006 -0.00260857 0.00168257 3.64721 0.696721 1.45973 -0.8476 
13457 H 1668 412 1.008 10.2175 22.4535 -32.8305 -0.00848901 -0.000556184 -0.000919404 3.48168 0.606061 0.805144 0.4238 
14404 O 1984 411 15.9994 12.188 15.39 -14.9827 0.000573152 0.00149036 0.0113174 5.64466 -17.4564 -2.45207 -0.8476 
16769 H 2772 412 1.008 24.4579 16.3901 -33.1133 -0.00146802 0.00411519 -0.0245234 -0.0769291 -1.12898 1.52273 0.4238 
13939 O 1829 411 15.9994 11.3191 28.4131 -21.5658 0.00968518 -0.00708342 -0.000870711 -4.04821 9.86268 11.8785 -0.8476 
13562 H 1703 412 1.008 22.1391 28.9316 -21.0892 0.00931595 0.0195483 0.0028281 -0.744966 3.39802 0.193358 0.4238 
9729 O 491 411 15.9994 28.1275 15.4111 -21.1196 0.00584265 0.00454815 -0.00176935 -5.67106 2.01686 3.32275 -0.8476 
12634 H 1459 412 1.008 24.8732 23.4357 -19.8797 -0.00702392 0.0194972 -0.00453829 1.46006 -0.387479 2.41068 0.4238 
13900 O 1816 411 15.9994 28.5016 21.4429 -25.2525 0.00518457 -0.00722895 0.00140426 -2.98533 -2.02857 -0.320847 -0.8476 
13709 H 1752 412 1.008 19.4274 25.4133 -16.3672 0.00582839 0.00612368 0.0100126 0.376295 0.823771 9.51512 0.4238 
10249 H 664 412 1.008 25.8021 25.2734 -24.8593 -0.00428441 0.000135207 0.00490539 -1.09772 3.90103 -2.54844 0.4238 
10197 O 647 411 15.9994 21.0131 28.4981 -32.4389 0.00618787 0.00818073 -0.00305813 11.0863 25.476 -7.93827 -0.8476 
10795 H 846 412 1.008 29.0061 18.3475 -31.1716 -0.022435 0.00405304 -0.0241063 -7.98885 -0.588165 0.257332 0.4238 
10745 H 829 412 1.008 29.7531 13.1734 -19.1494 0.014314 0.00408547 -0.0201905 -5.92296 -0.231999 -1.23456 0.4238 
11780 H 1174 412 1.008 11.5539 24.9838 -26.8193 0.00812825 -0.000744045 -0.000792822 -2.02028 0.61087 -0.394932 0.4238 
15425 H 2324 412 1.008 12.3579 23.9806 -30.7946 0.00105022 -0.00997375 -0.0180881 -0.17141 0.568201 -2.76461 0.4238 
11779 H 1174 412 1.008 11.3635 23.5284 -27.535 0.0135873 0.00413751 -0.0121754 -2.48416 0.482611 0.606078 0.4238 
8936 H 226 412 1.008 26.5221 24.7333 -32.9725 0.00236192 0.0161846 0.00462953 0.514536 11.4608 5.02306 0.4238 
17629 O 3059 411 15.9994 18.267 28.0258 -28.7794 -0.00798511 0.0110258 0.000169791 5.14261 -5.22703 -2.64378 -0.8476 
17630 H 3059 412 1.008 18.7169 27.3627 -29.3777 -0.0128097 -0.00922012 0.0189472 -4.0482 2.42481 -3.33655 0.4238 
17292 H 2946 412 1.008 28.8138 29.1103 -18.994 -0.00629499 0.0153687 -0.00347358 3.84851 -4.07749 -0.876205 0.4238 
14341 O 1963 411 15.9994 15.1232 27.2767 -22.621 0.0115139 -0.0073517 0.00237475 -3.10522 3.68396 -11.8231 -0.8476 
17631 H 3059 412 1.008 18.6898 28.924 -28.8998 0.00799234 0.00149696 -0.0148465 -1.4235 -1.06117 -0.322769 0.4238 
17504 H 3017 412 1.008 11.7375 25.2723 -32.2338 0.00475402 6.95416e-05 0.00449308 8.53948 -4.04228 -0.819294 0.4238 
9779 H 507 412 1.008 28.1941 17.176 -15.2318 0.0471061 0.0416054 0.0237734 -8.9887 8.09331 5.08524 0.4238 
13125 Na 1606 464 22.9898 27.6778 20.22 -15.1256 0.00485725 -0.00293524 -0.00351098 1.17625 -5.16547 1.38734 1 
15831 H 2459 412 1.008 28.841 14.0363 -28.4514 0.00635716 0.0227114 -0.00708439 3.67317 -0.0955265 -3.67541 0.4238 
10794 O 846 411 15.9994 28.661 17.4282 -30.9822 0.0036877 0.000325581 0.00516349 11.5072 1.29828 -6.54425 -0.8476 
15424 O 2324 411 15.9994 11.6881 24.7225 -30.7635 0.0034936 -0.00813319 -0.00957054 -7.92781 -2.31614 12.8703 -0.8476 
14232 H 1926 412 1.008 10.7098 14.4756 -15.8407 0.00361545 -3.61531e-06 0.0180459 0.435655 4.36417 -2.26088 0.4238 
15426 H 2324 412 1.008 11.2025 24.6967 -29.8897 0.0151042 -0.00630913 -0.00308779 6.14166 0.697241 4.02326 0.4238 
11778 O 1174 411 15.9994 11.4459 24.5122 -27.6944 0.00418046 0.00624451 -0.00407509 -0.626899 -3.29933 0.149067 -0.8476 
10816 H 853 412 1.008 13.0649 23.5452 -24.8688 0.0116485 -0.0152805 0.00500179 -3.51017 4.71874 8.90719 0.4238 
10817 H 853 412 1.008 12.8348 22.162 -24.032 -0.0086689 -0.0110629 0.0063952 -2.70596 1.55677 2.65085 0.4238 
10815 O 853 411 15.9994 12.4695 22.7501 -24.7536 0.000197201 -0.00665737 0.0055073 20.7474 7.43798 1.04706 -0.8476 
14328 H 1958 412 1.008 27.1948 17.0035 -32.6159 0.00587133 0.0113079 -0.00622928 -0.649596 2.7786 -0.794576 0.4238 
15501 H 2349 412 1.008 21.3772 28.6646 -18.5169 -0.0152947 0.0272984 -0.0203453 1.54696 -6.92456 -2.11323 0.4238 
15260 H 2269 412 1.008 29.5751 12.9247 -23.2332 -0.0118418 0.0119828 0.00227235 6.76839 -5.51005 -3.95806 0.4238 
11867 H 1203 412 1.008 16.7633 29.9459 -28.005 -0.00263183 -0.000728887 0.00721625 -0.976501 -3.07395 -0.759304 0.4238 
10370 H 704 412 1.008 22.7108 10.5697 -27.0897 -0.0129709 -0.0165286 0.0202911 0.277982 3.44853 -0.232394 0.4238 
15259 O 2269 411 15.9994 29.0706 12.0725 -23.3718 -0.00174129 0.00748127 -0.00702581 -17.3266 -13.8938 -2.18413 -0.8476 
14415 H 1987 412 1.008 24.3745 19.0683 -30.9937 -0.00971888 -0.00288145 0.0108359 1.17758 0.810387 -1.58355 0.4238 
16487 H 2678 412 1.008 21.5167 22.4861 -32.3224 -0.00389536 0.0266816 -0.000867574 1.57514 -0.239771 2.52302 0.4238 
10796 H 846 412 1.008 29.3499 16.9119 -30.4733 0.0303511 0.0262043 -0.0047471 0.244019 8.01792 1.27616 0.4238 
10158 O 634 411 15.9994 13.8737 25.2543 -24.4859 0.00214859 0.00173127 0.00910079 6.25604 5.97826 -11.1196 -0.8476 
16059 H 2535 412 1.008 27.1726 24.6822 -20.8488 -0.0159141 0.0108496 0.0137074 -5.1099 3.2327 12.2624 0.4238 
11134 H 959 412 1.008 19.256 28.2846 -17.8851 -0.00883924 -0.0140025 0.0133368 1.32927 -5.68531 2.2199 0.4238 
10160 H 634 412 1.008 14.1479 25.5898 -25.3872 -0.0379868 -0.0253723 -0.0132207 -1.04243 0.398896 6.47835 0.4238 
10744 H 829 412 1.008 28.8268 14.4529 -19.5634 -0.00365011 -0.00307653 -0.00230733 6.79754 6.2841 -5.46306 0.4238 
14070 H 1872 412 1.008 12.8619 9.41772 -19.5098 -0.0156057 0.00738526 -0.00189397 -0.537574 -3.04099 -1.22227 0.4238 
16249 O 2599 411 15.9994 18.5712 17.2341 -15.884 -0.00320672 -0.000536459 0.00140909 52.502 11.4654 40.9887 -0.8476 
13362 H 1636 412 1.008 9.09606 21.3101 -24.1231 -0.00185 -0.0187638 -0.0104268 1.08443 5.32224 -1.12467 0.4238 
11416 H 1053 412 1.008 22.7449 25.2839 -25.064 0.00420639 -0.00335926 -0.00385219 -0.845374 3.07374 1.63468 0.4238 
10743 O 829 411 15.9994 29.6254 14.1589 -19.0382 -0.00106631 0.000316353 -0.0043163 6.23747 -12.8051 2.8533 -0.8476 
8897 H 213 412 1.008 10.9934 28.12 -23.2426 -0.00149411 -0.0233071 0.00162335 4.98416 -0.363027 -0.249421 0.4238 
8847 O 197 411 15.9994 15.8588 23.1468 -29.6935 -0.0052528 -0.000553378 0.00105825 -2.18216 -6.42927 -5.56566 -0.8476 
8849 H 197 412 1.008 16.3533 23.9808 -29.9381 -0.000565353 -0.011052 -0.0254528 -2.61983 0.897039 7.32214 0.4238 
9514 H 419 412 1.008 21.8786 25.8991 -30.0989 0.0095871 0.00404635 -0.0272522 8.31623 -4.74612 0.72022 0.4238 
11308 H 1017 412 1.008 17.3115 25.631 -31.0601 -0.00327113 -0.0232589 0.00174999 2.37071 2.13442 1.83931 0.4238 
11417 H 1053 412 1.008 23.8254 26.5057 -24.9841 -0.0084608 0.00726992 0.00526299 3.70069 -1.44348 -1.58455 0.4238 
11307 O 1017 411 15.9994 17.1672 25.4904 -30.0806 -0.00623587 -0.000159753 0.00463934 -7.61675 -1.2366 -4.04159 -0.8476 
11309 H 1017 412 1.008 16.9474 26.3644 -29.6472 0.00216319 0.0116805 -0.0149676 2.51763 -1.7218 1.26923 0.4238 
16976 H 2841 412 1.008 19.9625 26.0417 -30.6585 0.0122262 -0.00270465 -0.018404 -1.08144 -0.808315 -1.21722 0.4238 
14342 H 1963 412 1.008 14.6476 27.713 -23.3849 -0.0229896 -0.0278844 0.0121056 1.51139 4.74232 6.16033 0.4238 
10886 H 876 412 1.008 20.8534 29.7055 -26.6062 -0.00273562 0.00878382 0.00438678 -7.67517 5.37606 -2.9907 0.4238 
10966 H 903 412 1.008 21.6288 23.5181 -27.6415 -0.00380244 -0.00114975 0.00848616 4.7904 6.9232 3.81645 0.4238 
10965 O 903 411 15.9994 20.8362 24.1186 -27.747 -0.00240567 -0.000575142 0.00129548 -1.17409 -7.2032 -4.71653 -0.8476 
10885 H 876 412 1.008 20.5468 28.1944 -27.144 0.0327722 -0.00213289 0.0149048 -3.6761 4.5975 3.60681 0.4238 