ITEM: TIMESTEP
1000000
ITEM: NUMBER OF ATOMS
3942
ITEM: BOX BOUNDS pp pp pp
-1.2144971934047000e+00 3.4796137469397905e+01
-1.1555413694046983e+00 3.4855093293397914e+01
-1.1555409324047012e+00 3.4855093730397911e+01
ITEM: ATOMS id mol element type x y z
7 1 O 1 2.4716 -0.32824 5.63632
9 1 H 2 2.85653 0.546249 5.69407
19 1 O 1 1.93507 2.04187 2.05208
20 1 H 2 1.37377 1.40569 2.49531
21 1 H 2 2.41691 2.47061 2.75937
34 1 O 1 3.1884 3.88618 3.71617
35 1 H 2 3.49943 3.2475 4.35771
67 1 O 1 -0.251604 3.51293 1.43977
69 1 H 2 0.655711 3.21636 1.51086
139 1 C 3 -0.424105 -0.020745 -0.630335
93 1 H 2 2.85489 1.54457 0.447485
68 1 H 2 -0.436324 3.49727 0.500691
8 1 H 2 2.01026 -0.442724 6.46716
137 1 H 2 3.71918 2.73239 6.73315
91 1 O 1 3.23659 1.46965 -0.427113
92 1 H 2 3.26151 0.528199 -0.598236
80 1 H 2 0.0286585 -0.295178 3.3268
81 1 H 2 1.33296 -0.452703 4.07904
79 1 O 1 0.978217 -0.262413 3.21061
136 1 O 1 3.89478 2.24361 5.9291
36 1 H 2 3.91794 3.98697 3.10475
141 1 C 3 -0.0763876 2.38587 5.9016
477 4 H 2 8.27401 16.2587 7.71444
143 1 C 3 4.59718 0.346168 2.89062
15 1 H 2 4.84853 2.39919 -0.272754
138 1 H 2 4.84222 2.10733 5.93316
977 7 H 2 7.68259 -0.598776 -0.591022
14 1 H 2 6.33186 2.32778 -0.566932
130 1 O 1 7.18862 1.98531 5.77318
65 1 H 2 6.975 3.72851 3.1647
132 1 H 2 7.34025 2.62186 5.07458
131 1 H 2 7.38865 2.46134 6.57917
11 1 H 2 7.88939 0.287131 5.49704
94 1 O 1 7.82829 1.30296 -0.5347
64 1 O 1 7.77376 3.48268 3.63138
10 1 O 1 8.5569 -0.391649 5.3975
12 1 H 2 9.19065 -0.208568 6.0911
52 1 O 1 9.42916 2.0135 1.80858
53 1 H 2 8.85529 2.49268 2.40631
95 1 H 2 8.23889 1.41797 0.322278
13 1 O 1 5.6463 2.92814 -0.273984
123 1 H 2 5.754 3.76207 1.42785
86 1 H 2 9.75842 0.195764 4.17761
121 1 O 1 5.54496 4.05958 2.3133
66 1 H 2 8.29325 4.28621 3.65771
87 1 H 2 10.0736 0.734012 2.79818
54 1 H 2 10.2259 2.54223 1.76536
71 1 H 2 -0.666515 8.74325 1.39592
85 1 O 1 10.3502 0.0750798 3.435
1453 10 C 3 11.5793 0.195906 0.0701388
1455 10 C 3 12.0718 2.75403 6.57777
1321 10 O 1 15.0382 -0.621388 5.65753
1322 10 H 2 14.6137 -0.296424 6.45153
1323 10 H 2 15.4626 0.14897 5.27984
1333 10 O 1 14.2137 2.3223 1.55195
1334 10 H 2 14.1125 1.46848 1.97264
1335 10 H 2 14.6296 2.87007 2.21767
1348 10 O 1 15.1163 3.80692 3.56714
1381 10 O 1 11.7336 3.48232 1.20892
1383 10 H 2 12.5792 3.06393 1.37072
1406 10 H 2 15.0806 1.61215 0.276834
1393 10 O 1 13.1732 0.0641713 3.42549
1395 10 H 2 13.5416 -0.135748 4.28604
1394 10 H 2 12.2427 0.214874 3.5919
1405 10 O 1 15.6064 1.08022 -0.320493
1349 10 H 2 15.3381 3.26454 4.32402
1382 10 H 2 11.7305 4.24745 1.78408
1451 10 H 2 15.8951 2.48617 6.04832
1350 10 H 2 15.9108 3.81039 3.03329
1680 12 H 2 11.9767 3.88909 -0.71053
1407 10 H 2 16.3606 1.63067 -0.531399
2288 16 H 2 15.7675 -0.928604 -0.293707
1450 10 O 1 16.0855 1.95188 5.27727
108 1 H 2 2.3611 5.45793 4.24939
98 1 H 2 2.90202 10.7545 -1.1704
142 1 C 3 -0.000262446 8.85451 5.73512
3 1 H 2 -0.316536 5.13079 2.46909
1 1 O 1 -0.565142 5.94567 2.90544
2 1 H 2 -0.304753 6.63447 2.2939
106 1 O 1 1.93464 6.29842 4.41655
107 1 H 2 1.08895 6.23079 3.97331
63 1 H 2 2.9869 7.90521 4.0247
114 1 H 2 1.95777 6.01586 6.35763
70 1 O 1 0.0152135 8.08073 1.28388
61 1 O 1 3.46592 8.67847 3.72663
62 1 H 2 3.80181 9.07696 4.5295
49 1 O 1 1.79854 9.97084 2.04992
51 1 H 2 2.49892 9.6211 2.60072
72 1 H 2 0.813612 8.50164 1.60267
50 1 H 2 2.24597 10.2885 1.26562
134 1 H 2 4.05359 10.5712 5.92014
135 1 H 2 4.21013 9.29452 6.71863
133 1 O 1 4.64229 9.82793 6.05159
369 3 H 2 -0.104613 8.13768 -0.77918
112 1 O 1 2.08135 5.84699 7.29168
99 1 H 2 4.10065 10.4023 -0.315345
97 1 O 1 3.29922 10.9257 -0.316484
145 1 C 3 2.53258 5.76348 -0.287234
1843 13 O 1 15.8255 13.2637 -0.459717
116 1 H 2 4.81097 7.5382 2.55376
122 1 H 2 5.59851 5.01404 2.26468
140 1 C 3 5.47484 6.06268 5.52204
115 1 O 1 5.47285 6.98439 2.13971
117 1 H 2 6.30269 7.28349 2.5114
110 1 H 2 9.34518 5.47648 5.74505
103 1 O 1 9.1143 5.81411 3.81366
105 1 H 2 8.75082 6.5771 3.36425
18 1 H 2 6.4533 9.54368 -0.240195
17 1 H 2 5.56024 8.5436 0.462793
16 1 O 1 5.55542 9.21244 -0.221937
128 1 H 2 6.45576 9.32571 5.87481
127 1 O 1 7.35067 9.10087 5.62023
31 1 O 1 7.81534 8.0455 3.08699
32 1 H 2 7.72359 8.42989 3.9588
33 1 H 2 8.5292 8.53773 2.68159
22 1 O 1 9.62815 9.69122 2.16782
24 1 H 2 8.99135 10.1319 1.60522
104 1 H 2 10.0226 5.76981 3.51495
129 1 H 2 7.82426 9.93222 5.64846
23 1 H 2 10.131 10.4027 2.56431
100 1 O 1 8.04109 10.5941 0.119951
146 1 C 3 8.75063 5.46725 0.304672
109 1 O 1 9.56498 5.4801 6.67667
59 1 H 2 8.09325 8.3305 7.27283
102 1 H 2 8.64537 10.4592 -0.610036
1447 10 O 1 16.7452 9.75599 6.03919
2118 15 H 2 11.6033 15.4929 -0.43225
1370 10 H 2 14.8534 4.17433 7.49379
1413 10 H 2 16.5577 9.97311 0.0373123
1385 10 H 2 11.1403 8.84132 1.72767
1422 10 H 2 14.4005 5.36947 4.24717
1377 10 H 2 16.6335 7.61895 3.33229
1456 10 C 3 11.5462 8.69456 5.87386
1428 10 H 2 14.119 6.08794 6.40045
1315 10 O 1 11.7769 5.63534 3.07899
1316 10 H 2 11.9226 6.25269 2.36214
1317 10 H 2 12.42 5.88287 3.74337
1420 10 O 1 13.9776 6.14892 4.60746
1421 10 H 2 14.5889 6.86149 4.42112
1375 10 O 1 15.8699 7.91592 3.82713
1384 10 O 1 11.8028 8.38806 1.20624
1363 10 O 1 14.0595 9.6094 2.05658
1365 10 H 2 14.4612 8.98247 2.65815
1386 10 H 2 12.6129 8.86827 1.37754
1376 10 H 2 16.2286 8.50316 4.4925
1364 10 H 2 13.7418 10.314 2.62119
1448 10 H 2 16.0493 10.4052 5.93634
1449 10 H 2 16.5678 9.34602 6.88575
1459 10 C 3 15.1206 5.41377 -1.15606
1412 10 H 2 15.231 10.2204 0.723251
1683 12 H 2 12.0194 8.33821 -0.478218
111 1 H 2 9.17355 4.67635 7.01872
1411 10 O 1 15.8062 10.5659 0.040667
579 4 C 3 0.0332171 14.8079 5.71722
519 4 H 2 1.30386 11.4613 3.1512
446 4 H 2 2.27296 12.1613 5.34705
577 4 C 3 -0.457338 11.5361 -0.199706
445 4 O 1 2.76845 12.0123 6.15236
447 4 H 2 3.34642 12.7721 6.22256
457 4 O 1 1.95999 14.3198 1.9649
458 4 H 2 1.69843 13.5288 2.43629
459 4 H 2 2.46081 14.8259 2.60465
472 4 O 1 3.67094 15.6923 3.86241
473 4 H 2 3.92902 15.1718 4.62311
505 4 O 1 -0.414268 15.2606 0.827273
507 4 H 2 0.455036 15.0026 1.13383
517 4 O 1 1.07346 12.242 3.65481
518 4 H 2 0.189984 12.0666 3.97873
529 4 O 1 3.26313 13.6223 -0.377405
530 4 H 2 2.904 13.8195 0.487677
531 4 H 2 3.47936 12.6906 -0.340777
575 4 H 2 4.27929 14.9116 6.90435
574 4 O 1 4.50051 14.312 6.19184
474 4 H 2 4.49712 15.9205 3.43628
506 4 H 2 -0.544341 16.1386 1.18571
804 6 H 2 -0.0651433 15.4398 -1.1057
522 4 H 2 1.39991 12.0686 7.48995
452 4 H 2 4.85557 14.4898 -0.0774368
504 4 H 2 8.69391 16.5913 4.28199
559 4 O 1 5.80087 16.4996 2.38678
576 4 H 2 5.45746 14.3076 6.17023
581 4 C 3 5.78389 11.8728 2.63349
560 4 H 2 5.8884 16.0555 1.5434
101 1 H 2 7.87545 11.5369 0.123278
451 4 O 1 5.63052 14.9995 0.158975
453 4 H 2 6.34192 14.3594 0.178763
569 4 H 2 7.42012 14.4345 6.45734
568 4 O 1 7.20969 13.9216 5.67704
570 4 H 2 7.52748 14.4534 4.94737
502 4 O 1 8.1858 15.8766 3.89822
449 4 H 2 8.21485 12.0072 5.90815
532 4 O 1 7.63001 13.2788 -0.153742
448 4 O 1 8.76153 11.2245 5.97762
450 4 H 2 9.33346 11.3969 6.72556
490 4 O 1 9.29624 14.2806 1.85039
491 4 H 2 8.94834 14.8547 2.53268
533 4 H 2 8.18089 13.5635 0.575452
503 4 H 2 7.46677 16.3122 3.4405
524 4 H 2 9.67678 11.9409 4.25405
525 4 H 2 9.84967 12.6929 2.95157
492 4 H 2 10.1242 14.6868 1.59399
523 4 O 1 10.2416 12.0004 3.48355
1832 13 H 2 12.2097 12.0751 3.82097
1786 13 O 1 15.22 15.7056 4.079
1787 13 H 2 15.5366 15.0737 4.72441
1845 13 H 2 16.6983 13.6282 -0.31229
1759 13 O 1 14.7384 11.6767 5.72991
1771 13 O 1 14.1245 14.1729 1.91275
1833 13 H 2 13.6361 11.8456 4.27343
1888 13 O 1 16.2518 14.1208 6.2271
1788 13 H 2 14.9723 15.1731 3.32315
1821 13 H 2 12.5335 15.2095 1.88257
1773 13 H 2 13.6999 13.3513 2.15993
1426 10 O 1 14.1048 6.1109 7.35726
1889 13 H 2 15.9208 14.5798 6.99908
1820 13 H 2 11.665 16.4492 1.91153
1831 13 O 1 13.0784 11.8393 3.49546
1891 13 C 3 12.0846 11.7879 0.00128511
1819 13 O 1 11.7855 15.62 1.44878
1760 13 H 2 14.1177 11.6701 6.45862
1893 13 C 3 11.9759 14.6915 6.1371
1772 13 H 2 14.7035 13.9353 1.18848
1761 13 H 2 15.3754 12.352 5.96328
1844 13 H 2 15.9074 12.3406 -0.220267
534 4 H 2 8.18629 13.3753 -0.926703
113 1 H 2 2.24592 6.7099 7.67185
1427 10 H 2 14.7408 6.7872 7.59055
60 1 H 2 8.86212 7.07185 7.61422
90 1 H 2 11.4167 -0.102452 7.92138
6 1 H 2 0.439615 5.59536 8.08948
1369 10 O 1 15.3665 3.36624 7.4934
2718 19 H 2 -0.667873 -0.303819 7.90931
88 1 O 1 10.478 -0.240546 7.79518
46 1 O 1 1.31693 1.93348 9.52744
47 1 H 2 1.86676 2.57006 9.07062
48 1 H 2 1.77505 1.76829 10.3515
73 1 O 1 -0.468741 3.84249 10.3738
165 2 O 1 2.02344 2.18784 14.0255
166 2 H 2 1.85856 1.41639 14.5677
167 2 H 2 2.65518 2.70311 14.5272
180 2 O 1 3.80035 3.72354 15.5259
213 2 O 1 -0.44749 3.55689 13.2641
215 2 H 2 0.347367 3.09397 13.5289
237 2 O 1 3.09113 1.43551 11.7389
238 2 H 2 2.65763 1.81661 12.5025
225 2 O 1 1.19722 -0.00639987 15.6219
226 2 H 2 0.321185 -0.306007 15.8649
285 2 C 3 -0.531446 -0.0122491 11.8964
214 2 H 2 -0.300276 3.78008 12.345
74 1 H 2 0.135744 3.19691 10.0076
83 1 H 2 1.25376 0.412186 8.46991
75 1 H 2 -0.447356 4.57056 9.75272
57 1 H 2 3.88289 3.83554 8.58689
239 2 H 2 3.95226 1.85298 11.7186
182 2 H 2 3.26032 4.49228 15.7093
1398 10 H 2 13.4675 -1.19282 8.60726
705 5 O 1 5.91827 16.5102 13.86
89 1 H 2 10.2611 -0.965576 8.38131
1966 14 H 2 11.423 16.72 13.9683
181 2 H 2 4.08373 3.41816 16.3877
493 4 O 1 3.54073 16.1138 8.2232
526 4 O 1 10.3579 11.9137 8.12759
691 5 H 2 2.98779 16.9147 16.233
475 4 O 1 7.69939 15.5166 7.9022
269 2 H 2 5.16391 3.94623 14.6409
159 2 O 1 5.77436 2.71196 11.7013
160 2 H 2 5.68389 3.29108 12.458
161 2 H 2 6.59923 2.24971 11.8501
211 2 H 2 7.47742 3.83479 15.1024
240 2 O 1 8.13798 1.17726 11.9019
210 2 O 1 8.26014 3.54399 15.5704
25 1 O 1 9.5294 1.89047 9.56578
198 2 O 1 9.94326 1.94246 14.0028
199 2 H 2 9.51668 2.56635 14.5901
241 2 H 2 8.71146 1.43826 12.6224
242 2 H 2 8.63284 1.39245 11.1113
27 1 H 2 9.7518 1.11915 9.0444
126 1 H 2 5.60729 3.53849 10.0681
38 1 H 2 8.60502 3.07063 8.65173
212 2 H 2 8.73866 4.35053 15.7621
39 1 H 2 7.30161 3.80433 8.41784
200 2 H 2 10.6363 2.448 13.578
233 2 H 2 10.0546 0.390258 14.8218
144 1 C 3 6.4612 -0.152119 8.55154
26 1 H 2 10.3748 2.25349 9.82993
231 2 O 1 10.0415 -0.428802 15.317
1123 8 H 2 7.73256 -0.938108 11.8265
289 2 C 3 6.11859 0.562402 14.5185
124 1 O 1 5.53835 3.84076 9.16246
267 2 O 1 5.89718 4.13633 14.0558
217 2 H 2 -0.809651 8.34192 13.1967
1495 11 H 2 15.811 2.96907 16.3201
2434 17 H 2 15.6343 -0.501094 11.9059
1540 11 H 2 12.0293 -0.296931 15.5641
1360 10 O 1 14.0268 1.73401 9.5184
1361 10 H 2 13.215 2.21321 9.68423
1362 10 H 2 14.4334 2.19692 8.78584
1387 10 O 1 11.8378 3.19387 10.0773
1388 10 H 2 11.9247 3.50563 10.9781
1479 11 O 1 13.9808 2.1611 13.9122
1480 11 H 2 13.5234 1.47938 14.4044
1481 11 H 2 14.4984 2.62569 14.5698
1494 11 O 1 15.6352 3.48947 15.5362
1527 11 O 1 12.0687 3.7726 12.8055
1529 11 H 2 12.6117 3.112 13.2356
1551 11 O 1 15.5854 1.44019 11.855
1552 11 H 2 15.0525 1.60717 11.0775
1599 11 C 3 11.7102 -0.238019 11.2616
1553 11 H 2 15.0329 1.71244 12.5877
1539 11 O 1 12.8783 0.0454274 15.2843
1389 10 H 2 11.7603 3.99144 9.55375
1541 11 H 2 13.4325 -0.0225101 16.0617
1397 10 H 2 13.5814 0.314382 8.69239
1528 11 H 2 11.8405 4.38699 13.5031
1371 10 H 2 16.1081 3.55253 8.06922
1496 11 H 2 16.4889 3.58249 15.1134
55 1 O 1 2.99871 3.69139 8.24973
82 1 O 1 1.14548 -0.434255 8.03626
1807 13 O 1 15.3516 15.5635 8.44513
227 2 H 2 1.67814 0.0248352 16.4489
58 1 O 1 8.37327 7.79181 8.01285
1834 13 O 1 13.2483 11.6337 8.19609
149 2 H 2 -0.485336 5.07813 14.4308
1835 13 H 2 12.3003 11.6467 8.0642
291 2 C 3 3.0559 6.06036 11.3047
41 1 H 2 3.03281 8.68873 8.4597
4 1 O 1 -0.400889 5.76274 8.51582
5 1 H 2 -0.286459 6.60917 8.9479
148 2 H 2 -0.233476 6.52986 14.0831
77 1 H 2 -0.242573 7.94364 11.1097
207 2 O 1 3.79803 7.85918 15.4336
216 2 O 1 -0.0643078 7.81318 12.9119
28 1 O 1 1.96378 9.70798 9.39102
29 1 H 2 1.19523 9.20856 9.66695
195 2 O 1 2.10772 9.69262 13.9715
197 2 H 2 2.78103 9.22255 14.4633
218 2 H 2 0.703732 8.32791 13.1597
244 2 H 2 3.06439 10.1217 12.3714
76 1 O 1 -0.095433 7.96972 10.1642
147 2 O 1 -0.320799 5.93384 14.827
254 2 H 2 1.18066 5.81629 15.5813
30 1 H 2 1.60412 10.4814 8.95658
245 2 H 2 3.06519 9.9755 10.8646
196 2 H 2 1.71576 10.2882 14.6102
243 2 O 1 3.64804 10.1039 11.6129
253 2 H 2 2.53954 6.4284 15.8471
42 1 H 2 4.24701 7.78473 8.47933
209 2 H 2 4.61967 7.63602 14.9962
78 1 H 2 -0.858534 8.43026 9.81521
208 2 H 2 4.06292 8.3864 16.1873
232 2 H 2 9.42315 -0.268419 16.0298
670 5 H 2 9.56956 11.765 16.2552
252 2 O 1 2.00238 5.66185 16.0473
1836 13 H 2 13.4047 12.2871 8.87788
1121 8 H 2 3.5926 -0.345965 11.7168
163 2 H 2 5.42416 8.88122 11.7608
125 1 H 2 5.65532 4.78925 9.21648
292 2 C 3 9.00051 5.15498 11.3254
268 2 H 2 5.86895 5.08562 13.9362
118 1 O 1 6.03841 6.71749 9.31724
261 2 O 1 6.07096 6.90093 14.2353
263 2 H 2 6.71541 7.3441 14.7871
120 1 H 2 6.65468 7.06181 8.6708
262 2 H 2 6.03587 7.42777 13.4369
119 1 H 2 6.2571 7.17891 10.1269
162 2 O 1 6.18632 8.32316 11.9154
164 2 H 2 6.91775 8.93449 12.0022
177 2 O 1 8.10122 8.0898 15.7036
43 1 O 1 9.78144 9.48392 9.66517
168 2 O 1 9.91128 9.55474 14.2813
170 2 H 2 9.41046 9.81594 13.5085
179 2 H 2 8.81104 8.57343 15.2811
45 1 H 2 9.35239 8.89458 9.04482
248 2 H 2 8.82513 10.2131 11.2178
169 2 H 2 10.3031 10.368 14.5995
44 1 H 2 10.6274 9.07226 9.84142
251 2 H 2 8.91426 6.55621 16.2349
1531 11 H 2 11.2033 8.34799 13.7594
1462 11 H 2 11.0848 5.72077 15.429
246 2 O 1 8.43387 10.3423 12.0818
249 2 O 1 9.51167 5.83799 16.4435
178 2 H 2 7.94355 8.56094 16.5218
1354 10 O 1 16.2294 8.11156 8.17048
1355 10 H 2 15.5479 8.42523 8.76497
1566 11 O 1 14.288 5.81952 16.4991
1567 11 H 2 14.7789 5.07914 16.1425
1559 11 H 2 16.4141 10.2608 12.1854
56 1 H 2 2.77359 4.5105 7.80857
1605 11 C 3 14.7238 6.87128 12.0578
1318 10 O 1 11.7176 5.72582 8.88783
1461 11 O 1 11.9142 5.63289 14.9593
1463 11 H 2 11.9827 6.43486 14.4412
1391 10 H 2 11.8798 7.34123 9.78846
1530 11 O 1 11.9572 7.85711 13.4324
1521 11 O 1 15.6755 8.18991 15.64
1392 10 H 2 12.0055 7.72686 11.247
1390 10 O 1 11.9949 8.09708 10.3644
1342 10 O 1 14.4284 9.679 9.73784
1344 10 H 2 13.6591 9.16672 9.98691
1509 11 O 1 13.8939 9.99873 14.2498
1511 11 H 2 14.4899 9.47132 14.7816
1532 11 H 2 12.6698 8.49585 13.4141
1510 11 H 2 14.3871 10.1864 13.4512
1523 11 H 2 15.152 7.45692 15.9638
1558 11 H 2 15.4463 10.5941 11.07
1343 10 H 2 14.0911 10.3398 9.133
1568 11 H 2 13.4502 5.79702 16.0368
1557 11 O 1 15.7075 10.8625 11.9509
37 1 O 1 8.12524 3.56937 7.99044
1319 10 H 2 12.5695 5.83426 8.46519
1522 11 H 2 15.9416 8.66186 16.4291
1979 14 H 2 13.4155 11.8709 15.0403
40 1 O 1 3.55946 8.11635 7.90181
1977 14 O 1 13.0528 12.4542 15.707
520 4 O 1 0.857247 12.1665 8.27237
513 4 H 2 -0.875295 16.2939 10.5137
494 4 H 2 2.99508 15.5084 8.72524
652 5 H 2 -0.306027 16.1048 13.9319
653 5 H 2 -0.613588 15.4225 12.6159
620 5 H 2 2.92563 14.9777 14.8465
511 4 O 1 -0.797319 15.3918 10.8241
484 4 O 1 1.70887 14.4616 9.79436
485 4 H 2 1.39748 13.7153 9.28216
486 4 H 2 2.44677 14.1165 10.297
603 5 O 1 1.68693 13.6294 13.5321
604 5 H 2 1.48539 12.9242 14.1473
605 5 H 2 1.06042 14.3207 13.7459
618 5 O 1 3.63536 15.4065 15.3246
663 5 O 1 1.07924 11.7731 15.4567
664 5 H 2 0.144737 11.5963 15.5648
675 5 O 1 3.68178 13.0883 11.5052
676 5 H 2 2.99583 13.2023 12.163
723 5 C 3 -0.48182 11.4587 11.4463
677 5 H 2 3.82762 12.1428 11.4719
651 5 O 1 -0.55154 15.259 13.557
512 4 H 2 0.00390622 15.0654 10.4145
495 4 H 2 4.30268 16.2693 8.78131
619 5 H 2 3.75553 14.8698 16.108
1800 13 H 2 14.6523 13.7259 10.5651
562 4 O 1 5.86664 16.5749 9.74512
665 5 H 2 1.44506 11.6763 16.3359
650 5 H 2 8.30344 16.6108 16.1627
1967 14 H 2 12.1422 15.4467 13.5766
527 4 H 2 10.3519 11.1903 8.75444
598 5 H 2 5.04954 14.0796 11.6587
707 5 H 2 5.20909 16.2455 14.4459
582 4 C 3 6.61601 11.195 8.82361
727 5 C 3 5.82521 11.5886 14.6324
521 4 H 2 -0.0371786 12.0217 7.96371
564 4 H 2 6.70676 16.343 9.34933
528 4 H 2 10.265 12.6992 8.66667
247 2 H 2 8.38152 11.2929 12.1818
649 5 H 2 7.24138 16.1179 15.2031
476 4 H 2 8.26461 14.8802 8.3402
599 5 H 2 5.84225 15.2129 11.0431
597 5 O 1 5.85983 14.579 11.76
680 5 H 2 7.47491 13.3823 12.015
678 5 O 1 8.38385 13.0866 11.9636
648 5 O 1 7.81997 15.8252 15.9072
463 4 O 1 9.52262 14.2036 9.6533
636 5 O 1 9.44232 14.2494 14.2517
637 5 H 2 8.8774 14.7462 14.8436
679 5 H 2 8.78036 13.3864 12.7816
465 4 H 2 9.19696 13.741 10.4254
706 5 H 2 5.88637 15.8766 13.1432
671 5 H 2 9.89743 12.748 15.1515
638 5 H 2 10.1013 14.8807 13.9628
669 5 O 1 10.2364 11.974 15.6011
1991 14 H 2 16.1109 14.1771 12.4063
464 4 H 2 10.2283 14.7584 9.98579
1825 13 O 1 11.9879 15.5005 10.4434
1978 14 H 2 12.1258 12.2198 15.7523
1917 14 O 1 13.649 14.8112 14.423
1798 13 O 1 14.077 13.5668 9.81683
1965 14 O 1 11.3541 15.958 13.393
1934 14 H 2 15.0459 15.518 15.5643
1826 13 H 2 12.0517 15.8066 11.3481
1799 13 H 2 13.2413 13.9597 10.0688
1827 13 H 2 11.8103 16.2914 9.93444
1808 13 H 2 14.9464 14.8981 9.00133
1809 13 H 2 16.1598 15.7978 8.90129
2037 14 C 3 11.8404 11.7341 12.0848
1932 14 O 1 15.6801 16.0339 16.0623
1989 14 O 1 15.2897 13.692 12.3257
1919 14 H 2 14.1551 14.5237 13.6631
1918 14 H 2 13.5773 14.031 14.9728
1990 14 H 2 15.553 12.7718 12.331
1396 10 O 1 13.1952 -0.387117 8.16802
1320 10 H 2 11.1063 5.58872 8.16407
155 2 H 2 3.54622 0.420487 17.9492
192 2 O 1 2.0089 1.88268 21.1488
193 2 H 2 1.38074 2.37175 21.6803
194 2 H 2 2.57044 1.44154 21.7862
201 2 O 1 3.39932 3.79304 19.5805
202 2 H 2 3.12052 3.16095 20.243
228 2 O 1 0.938202 -0.142466 19.8383
229 2 H 2 1.24779 0.666411 20.2458
383 3 O 1 3.59784 1.54029 23.7298
384 3 H 2 3.0719 1.80136 24.4858
220 2 H 2 -0.0257125 3.77204 23.3632
219 2 O 1 -0.0697487 3.64155 22.416
153 2 O 1 2.91187 -0.289546 17.8508
154 2 H 2 2.22357 -0.0859267 18.4841
431 3 C 3 -0.131351 -0.227137 23.3583
221 2 H 2 -0.0909548 4.5268 22.0525
283 2 H 2 4.05241 2.84636 18.4108
385 3 H 2 4.29759 2.19206 23.6877
203 2 H 2 3.99253 4.38269 20.0459
282 2 O 1 4.42252 2.24117 17.7681
2864 20 H 2 -0.722508 -0.365435 20.0627
1266 9 H 2 3.57957 -0.442381 23.6859
359 3 O 1 -0.520988 3.6154 25.2333
287 2 C 3 -0.145159 2.78383 17.9193
260 2 H 2 2.13902 4.9353 19.1588
361 3 H 2 0.308747 3.18594 25.4415
1544 11 H 2 13.2502 -0.569316 20.7028
284 2 H 2 5.35795 2.44395 17.7585
272 2 H 2 5.9766 4.27051 21.8587
276 2 O 1 7.2536 2.75691 17.8547
305 3 O 1 5.95607 3.3152 23.7456
306 3 H 2 6.00999 3.83826 24.5454
307 3 H 2 6.5415 2.57451 23.9033
184 2 H 2 7.34425 4.43178 20.1962
277 2 H 2 7.73709 3.32518 18.4543
183 2 O 1 8.23459 4.1788 19.9523
386 3 O 1 7.968 1.20342 23.4784
157 2 H 2 8.22706 0.873686 17.3181
156 2 O 1 8.54212 -0.024112 17.4226
158 2 H 2 9.15787 0.021276 18.1541
171 2 O 1 9.60482 2.25268 21.3738
172 2 H 2 9.05989 2.96235 21.0337
387 3 H 2 8.49862 1.49742 24.2189
388 3 H 2 8.50896 1.38266 22.7094
235 2 H 2 9.95539 0.973836 20.1796
173 2 H 2 10.3408 2.69622 21.7955
185 2 H 2 8.65804 5.00053 19.7039
234 2 O 1 10.1351 0.134351 19.7562
290 2 C 3 6.08086 -0.0509414 20.6525
1973 14 H 2 12.1306 16.1501 22.5573
270 2 O 1 5.72717 4.84653 21.136
230 2 H 2 1.23147 -0.836293 20.4289
1674 12 H 2 10.8489 3.26749 25.4791
1656 12 H 2 13.9927 9.19193 25.5215
716 5 H 2 7.29615 14.8043 17.3324
236 2 H 2 11.0903 0.0805547 19.7257
1467 11 O 1 14.4651 -0.37299 17.7018
1469 11 H 2 15.0587 0.373574 17.6215
1506 11 O 1 13.8676 2.3233 21.8232
1507 11 H 2 13.1142 2.72316 22.2577
1508 11 H 2 14.5405 2.27859 22.5025
1515 11 O 1 15.2952 3.57211 19.7856
1516 11 H 2 14.8118 3.06298 20.4362
1533 11 O 1 11.7008 3.90803 22.732
1534 11 H 2 11.6838 4.06981 23.6752
1543 11 H 2 13.2367 0.937682 20.559
1697 12 O 1 15.6028 1.6474 23.6881
1698 12 H 2 14.9619 1.76395 24.3894
1745 12 C 3 11.8752 -0.244189 23.7351
1699 12 H 2 15.7412 0.701267 23.6442
1542 11 O 1 12.9753 0.132334 20.1125
1468 11 H 2 13.9716 -0.202051 18.504
1535 11 H 2 11.5138 4.76052 22.3388
1601 11 C 3 12.4421 3.06926 17.7874
1597 11 H 2 15.6649 2.42419 18.5017
1673 12 O 1 11.5957 3.86627 25.478
1596 11 O 1 16.0065 2.04363 17.6925
1517 11 H 2 16.2097 3.5065 20.0605
1269 9 H 2 8.32777 -0.713942 23.847
288 2 C 3 0.0726193 8.99459 18.0652
437 3 C 3 2.59884 5.56802 23.2977
258 2 O 1 1.65637 5.71584 18.8867
150 2 O 1 -0.384073 6.06864 20.6595
151 2 H 2 -0.254792 6.85628 21.1878
152 2 H 2 0.374557 6.04366 20.0763
259 2 H 2 1.75499 5.73931 17.9349
187 2 H 2 2.72262 7.33137 19.5665
222 2 O 1 -0.265697 8.37582 22.1698
186 2 O 1 3.45229 7.84049 19.9195
188 2 H 2 3.04736 8.64167 20.2517
224 2 H 2 0.572241 8.82341 22.0525
174 2 O 1 2.07108 9.66524 21.4398
175 2 H 2 2.57583 9.94419 22.2037
223 2 H 2 -0.313394 8.19801 23.1091
280 2 H 2 3.72934 9.92443 17.9925
281 2 H 2 4.05055 8.53639 18.5044
176 2 H 2 1.61981 10.4574 21.148
391 3 H 2 4.40627 9.9397 23.721
389 3 O 1 3.59457 10.3763 23.4626
279 2 O 1 4.32413 9.18671 17.8575
343 3 H 2 2.64968 9.74867 24.9351
362 3 O 1 -0.344507 8.09661 25.1212
344 3 O 1 9.51776 2.14144 25.6312
409 3 H 2 6.09177 7.91451 25.5247
265 2 H 2 4.91089 7.78122 21.1321
271 2 H 2 5.9795 5.72216 21.429
438 3 C 3 9.173 6.06922 23.4196
286 2 C 3 5.72484 5.89138 17.4506
264 2 O 1 5.70689 7.71652 21.6598
266 2 H 2 6.39599 8.0733 21.0994
255 2 O 1 9.75983 6.42623 19.213
256 2 H 2 9.28732 7.06378 19.7483
204 2 O 1 8.01115 8.34405 20.3931
309 3 H 2 5.78052 8.51959 23.3471
274 2 H 2 6.12427 9.65193 17.7288
308 3 O 1 5.80853 9.05696 24.1387
310 3 H 2 6.62315 9.55382 24.0628
205 2 H 2 7.79356 8.67862 19.5231
189 2 O 1 9.84639 10.0466 21.7938
190 2 H 2 9.36777 10.0871 22.6218
206 2 H 2 8.4952 9.05678 20.8102
275 2 H 2 7.38108 10.476 17.9113
273 2 O 1 7.01768 9.60459 18.0691
191 2 H 2 10.5018 9.36222 21.9288
394 3 H 2 9.02249 9.94152 24.9902
257 2 H 2 10.6253 6.36757 19.6177
250 2 H 2 9.62541 5.88836 17.3926
392 3 O 1 8.37413 10.1524 24.3183
1593 11 O 1 16.1345 9.67649 17.8832
1573 11 H 2 14.6727 5.19907 19.4496
1751 12 C 3 14.8422 6.19778 23.3677
1501 11 H 2 15.4024 7.30287 19.7901
1574 11 H 2 14.3145 6.09711 18.2847
1464 11 O 1 11.9599 6.18147 20.7031
1465 11 H 2 12.104 6.92804 21.2846
1466 11 H 2 12.7771 6.09874 20.2117
1572 11 O 1 14.3658 6.08126 19.2404
1536 11 O 1 12.1827 8.19841 22.4898
1538 11 H 2 12.3276 8.08132 23.4287
1500 11 O 1 15.9771 8.01953 20.059
1502 11 H 2 15.4219 8.58305 20.5979
1537 11 H 2 12.9155 8.74173 22.1998
1704 12 H 2 14.7638 10.1438 22.4096
1703 12 O 1 14.3503 9.85922 21.5946
1490 11 H 2 15.5841 10.3145 24.4715
1594 11 H 2 15.5917 10.4637 17.9259
1676 12 O 1 12.4173 7.96383 25.4339
1595 11 H 2 15.9381 9.20538 18.6929
1602 11 C 3 11.871 8.88407 18.3159
1705 12 H 2 14.0334 10.6674 21.1913
1488 11 O 1 15.841 10.7014 23.6345
1678 12 H 2 11.8079 8.58109 25.8387
2135 15 O 1 15.8481 13.3763 23.9325
725 5 C 3 -0.50534 14.7821 18.2253
390 3 H 2 3.80218 11.31 23.4991
799 6 H 2 0.794913 15.334 25.3775
659 5 H 2 -0.122902 16.0578 21.7811
797 6 O 1 -0.0111967 15.7177 25.0322
658 5 H 2 -0.266301 15.6127 23.221
668 5 H 2 -0.0868661 11.8828 19.9452
591 5 O 1 2.70795 11.543 17.8632
592 5 H 2 2.10357 11.6446 18.5985
593 5 H 2 3.26571 12.3199 17.9019
630 5 O 1 1.97934 13.9861 21.3926
631 5 H 2 1.28115 14.4873 21.814
632 5 H 2 2.39079 14.6067 20.7911
639 5 O 1 3.28671 15.7743 19.5354
657 5 O 1 -0.314897 15.2909 22.3208
666 5 O 1 0.870225 11.8967 19.9491
667 5 H 2 1.09663 12.7016 20.4152
821 6 O 1 3.5676 13.0267 23.4283
869 6 C 3 0.0400937 12.1377 23.7491
822 6 H 2 3.0518 13.2976 22.6688
641 5 H 2 4.02734 16.1262 20.0293
823 6 H 2 4.29338 13.6499 23.4601
750 6 H 2 2.75589 13.9168 24.9497
721 5 H 2 4.04231 14.6024 18.1788
720 5 O 1 4.45469 13.9844 17.5754
640 5 H 2 2.71022 16.5261 19.3991
363 3 H 2 -0.963066 8.73737 25.472
278 2 H 2 7.6014 2.97037 16.9889
364 3 H 2 0.514833 8.41877 25.3932
623 5 H 2 8.7271 16.372 20.1717
708 5 O 1 5.62657 16.4433 21.3474
728 5 C 3 5.34202 11.775 20.6048
674 5 H 2 10.2841 11.2502 20.6435
722 5 H 2 5.38883 14.0392 17.7769
393 3 H 2 8.37769 11.1085 24.273
710 5 H 2 5.49943 16.0626 22.2164
744 6 H 2 6.04461 15.312 24.3865
743 6 O 1 5.79597 14.8283 23.5988
745 6 H 2 6.43183 14.1148 23.5445
622 5 H 2 7.36107 15.8797 20.6001
714 5 O 1 7.14446 14.1839 18.0454
715 5 H 2 7.5457 14.5953 18.8109
824 6 O 1 8.49404 13.0822 23.86
595 5 H 2 8.1223 12.5502 18.0411
621 5 O 1 8.15998 15.6011 20.1525
594 5 O 1 8.74277 11.8229 17.9934
596 5 H 2 9.35822 11.9853 18.7083
609 5 O 1 9.86202 14.0349 21.7941
610 5 H 2 10.2247 13.3518 21.2301
825 6 H 2 9.07315 13.4638 24.5198
826 6 H 2 8.89045 13.3252 23.0233
611 5 H 2 9.44073 14.6463 21.19
672 5 O 1 10.4414 12.0525 20.1458
1982 14 H 2 13.579 12.727 20.926
1944 14 O 1 14.2622 14.2971 21.8899
2111 15 O 1 12.1688 15.5438 25.855
2113 15 H 2 12.0974 15.7577 24.9247
784 6 H 2 10.6798 14.7224 25.8929
2137 15 H 2 16.5809 13.9879 23.86
1954 14 H 2 15.3075 15.2224 20.6504
2039 14 C 3 11.731 14.8948 18.3513
1489 11 H 2 15.6984 11.6408 23.7506
1980 14 O 1 13.2449 12.023 20.3701
2136 15 H 2 15.3617 13.6747 24.701
1971 14 O 1 11.9978 15.4497 23.1961
1955 14 H 2 16.5369 16.0882 20.4745
1945 14 H 2 13.539 14.6816 22.3853
2183 15 C 3 12.2513 11.5324 24.2129
673 5 H 2 11.3898 12.0739 20.0184
2035 14 H 2 16.4148 14.5331 18.7456
1981 14 H 2 13.7205 12.1223 19.5454
1905 14 O 1 14.6782 11.987 17.8982
1953 14 O 1 15.77 15.7585 20.0062
1907 14 H 2 15.3982 12.6173 17.875
1946 14 H 2 14.7334 13.7625 22.529
2034 14 O 1 16.522 13.9779 17.9733
1972 14 H 2 11.1912 15.018 22.9146
1906 14 H 2 14.24 12.092 17.0537
2579 18 O 1 15.4857 -1.00526 23.7088
360 3 H 2 -0.506934 4.42494 25.7439
749 6 O 1 2.28246 14.2085 25.7288
341 3 O 1 2.11526 9.4877 25.6851
1625 12 O 1 13.888 2.53064 25.8405
798 6 H 2 -0.123547 16.5279 25.5294
311 3 O 1 1.76944 2.41515 25.7924
1933 14 H 2 16.027 15.4242 16.7135
299 3 O 1 2.67948 0.0214972 29.7183
300 3 H 2 2.02677 0.128286 30.4103
301 3 H 2 3.14838 0.855782 29.6999
326 3 O 1 3.55082 3.77778 27.3604
327 3 H 2 3.69459 3.25788 28.1511
338 3 O 1 1.85179 2.15928 33.2379
347 3 O 1 3.55438 3.94013 32.0333
348 3 H 2 3.05078 3.44021 32.6757
371 3 O 1 1.14855 -0.0466284 27.3641
374 3 O 1 0.986989 -0.239862 31.7737
375 3 H 2 1.20061 0.486218 32.3597
373 3 H 2 1.5732 -0.0515753 28.222
372 3 H 2 0.225657 -0.217311 27.5522
429 3 H 2 4.09343 2.82704 30.6074
339 3 H 2 1.11095 2.66467 33.5725
367 3 H 2 -0.0495733 4.57697 33.8516
328 3 H 2 3.24127 4.62425 27.6827
313 3 H 2 2.3429 2.95151 26.3398
433 3 C 3 -0.185899 3.40585 29.6355
312 3 H 2 1.57899 1.64453 26.3273
428 3 O 1 4.31044 2.28514 29.8488
349 3 H 2 4.30099 4.28073 32.526
2101 15 H 2 16.3147 15.562 32.7095
340 3 H 2 2.33661 1.89724 34.0205
3010 21 H 2 -0.851732 -0.2396 31.9285
365 3 O 1 -0.0961017 3.71487 34.265
378 3 H 2 10.0096 -0.648756 27.1594
366 3 H 2 -1.01783 3.46571 34.1973
2065 15 H 2 14.6908 14.4481 26.7837
436 3 C 3 5.5139 -0.523855 32.7003
430 3 H 2 5.25125 2.12745 29.9278
422 3 O 1 7.08834 2.10502 29.8203
330 3 H 2 7.5059 3.91663 32.3156
423 3 H 2 7.40623 2.57879 30.5888
357 3 H 2 7.75901 3.71836 27.0932
424 3 H 2 7.41581 2.60899 29.0753
356 3 O 1 8.21809 3.28142 27.8106
329 3 O 1 8.18164 3.56358 31.7368
303 3 H 2 8.04174 0.510271 29.8167
302 3 O 1 8.57776 -0.279277 29.7423
304 3 H 2 9.13786 -0.263032 30.5184
317 3 O 1 9.79789 2.12447 33.5932
318 3 H 2 9.29335 2.7078 33.0263
379 3 H 2 9.66731 0.0896196 28.4359
381 3 H 2 10.2313 0.967115 32.2958
380 3 O 1 10.3142 0.179493 31.7583
358 3 H 2 8.80833 3.94916 28.1598
345 3 H 2 8.86435 2.33651 26.3029
2064 15 H 2 14.0881 13.0598 26.745
415 3 H 2 5.34245 4.15063 26.4629
416 3 O 1 6.17739 4.68188 33.4781
331 3 H 2 8.62741 4.33602 31.3892
319 3 H 2 10.4882 2.67986 33.9556
418 3 H 2 5.97827 4.3099 34.3373
435 3 C 3 5.81174 -0.551939 26.4702
2532 18 H 2 13.6178 -1.2491 26.5506
346 3 H 2 10.0671 1.4614 26.021
1742 12 O 1 16.4894 1.78006 29.9296
377 3 O 1 10.1534 0.180007 27.6163
1679 12 O 1 12.1667 3.68173 34.3852
1663 12 H 2 15.9556 2.89739 31.1951
382 3 H 2 11.2574 0.0699541 31.6369
1747 12 C 3 11.9456 2.69658 29.3104
1687 12 H 2 13.4108 0.533309 27.8789
1627 12 H 2 14.4724 2.84653 26.5297
1613 12 O 1 14.592 -0.326633 29.3451
1614 12 H 2 14.0216 -0.286024 30.1126
1615 12 H 2 15.2208 0.383175 29.4756
1640 12 O 1 15.4736 3.55695 28.0581
1652 12 O 1 14.1272 1.88788 33.3672
1661 12 O 1 15.5556 3.54222 31.7786
1662 12 H 2 15.0388 3.02154 32.3935
1685 12 O 1 12.8916 0.321883 27.103
1686 12 H 2 11.983 0.41182 27.3905
1689 12 H 2 13.3689 0.568158 32.2001
1653 12 H 2 13.5202 2.53717 33.7223
1681 12 H 2 11.8816 4.45571 33.8995
1688 12 O 1 13.0162 -0.232023 31.8108
1743 12 H 2 16.2999 2.43699 29.2597
1626 12 H 2 13.4869 1.74318 26.2083
1641 12 H 2 14.9135 4.29847 28.2875
1654 12 H 2 14.6866 1.65216 34.1073
1642 12 H 2 16.2616 3.95638 27.6896
1690 12 H 2 13.2074 -0.915749 32.4528
376 3 H 2 1.2411 -1.02389 32.2605
342 3 H 2 2.74939 9.21693 26.349
406 3 H 2 2.5063 5.3374 31.4151
293 3 O 1 -0.0890982 5.89762 26.8446
296 3 O 1 -0.464295 5.93586 32.4916
297 3 H 2 -0.442683 6.69739 33.0711
298 3 H 2 0.364133 5.97443 32.0136
398 3 O 1 2.21745 6.13317 28.3382
399 3 H 2 2.00777 5.82119 29.2185
400 3 H 2 1.44692 5.91175 27.8152
404 3 O 1 1.96507 6.07401 31.131
405 3 H 2 2.4731 6.85018 31.367
355 3 H 2 3.4408 7.71567 27.9609
353 3 O 1 3.88615 8.47851 27.5922
332 3 O 1 3.52635 7.94106 31.9702
354 3 H 2 4.05034 9.04735 28.3443
320 3 O 1 1.9718 9.57289 33.4002
321 3 H 2 1.3052 9.05597 33.8526
333 3 H 2 2.93522 8.45589 32.5195
334 3 H 2 4.20146 7.62777 32.5721
427 3 H 2 4.3406 9.33655 30.7168
426 3 H 2 4.15941 10.5106 29.7783
425 3 O 1 4.69989 9.73405 29.9236
322 3 H 2 1.4776 10.2495 32.9373
434 3 C 3 -0.595644 8.88637 30.0938
370 3 H 2 -1.00027 8.74112 34.1705
368 3 O 1 -0.198762 8.23016 34.2834
294 3 H 2 -0.877124 5.71649 27.3569
295 3 H 2 -0.303533 6.68534 26.3448
413 3 O 1 6.12493 4.5043 26.04
414 3 H 2 5.93465 5.43509 25.9232
408 3 H 2 5.36538 7.68276 26.8326
417 3 H 2 6.00223 5.61788 33.5754
432 3 C 3 6.04312 5.66937 30.0723
410 3 O 1 5.76588 7.38908 33.4882
412 3 H 2 6.56752 7.76101 33.1204
325 3 H 2 8.85396 7.28408 28.0525
395 3 O 1 9.49239 5.73412 28.502
396 3 H 2 9.55132 5.74341 29.4574
401 3 O 1 9.58054 5.99103 31.2018
402 3 H 2 9.15525 6.77904 31.54
324 3 H 2 7.58528 7.725 27.3539
420 3 H 2 6.70379 9.55682 29.8539
419 3 O 1 7.62762 9.32123 29.9391
421 3 H 2 7.84229 8.88894 29.1125