ITEM: TIMESTEP
0
ITEM: NUMBER OF ATOMS
67445
ITEM: BOX BOUNDS pp pp pp
0.0000000000000000e+00 3.9280000000000001e+01
-1.6000000000000000e+02 2.6000000000000000e+02
0.0000000000000000e+00 8.5043999999999997e+01
ITEM: ATOMS id mol element type x y z 
63606 16746 PR 417 0 -73 0 
63607 16747 PR 417 0 -73 2.8348 
63608 16748 PR 417 0 -73 5.6696 
63636 16776 PR 417 0 -71.6495 0 
63637 16777 PR 417 0 -71.6495 2.8348 
63638 16778 PR 417 0 -71.6495 5.6696 
63666 16806 PR 417 0 -70.299 0 
63667 16807 PR 417 0 -70.299 2.8348 
63668 16808 PR 417 0 -70.299 5.6696 
63726 16866 PR 417 2.455 -73 0 
63727 16867 PR 417 2.455 -73 2.8348 
63728 16868 PR 417 2.455 -73 5.6696 
63756 16896 PR 417 2.455 -71.6495 0 
63757 16897 PR 417 2.455 -71.6495 2.8348 
63758 16898 PR 417 2.455 -71.6495 5.6696 
63786 16926 PR 417 2.455 -70.299 0 
63787 16927 PR 417 2.455 -70.299 2.8348 
63788 16928 PR 417 2.455 -70.299 5.6696 
63846 16986 PR 417 4.91 -73 0 
63847 16987 PR 417 4.91 -73 2.8348 
63848 16988 PR 417 4.91 -73 5.6696 
63876 17016 PR 417 4.91 -71.6495 0 
63877 17017 PR 417 4.91 -71.6495 2.8348 
63878 17018 PR 417 4.91 -71.6495 5.6696 
63906 17046 PR 417 4.91 -70.299 0 
63907 17047 PR 417 4.91 -70.299 2.8348 
63908 17048 PR 417 4.91 -70.299 5.6696 
63966 17106 PR 417 7.365 -73 0 
63967 17107 PR 417 7.365 -73 2.8348 
63968 17108 PR 417 7.365 -73 5.6696 
63996 17136 PR 417 7.365 -71.6495 0 
63997 17137 PR 417 7.365 -71.6495 2.8348 
63998 17138 PR 417 7.365 -71.6495 5.6696 
64026 17166 PR 417 7.365 -70.299 0 
64027 17167 PR 417 7.365 -70.299 2.8348 
64028 17168 PR 417 7.365 -70.299 5.6696 
64086 17226 PR 417 9.82 -73 0 
64087 17227 PR 417 9.82 -73 2.8348 
64088 17228 PR 417 9.82 -73 5.6696 
64116 17256 PR 417 9.82 -71.6495 0 
64117 17257 PR 417 9.82 -71.6495 2.8348 
64118 17258 PR 417 9.82 -71.6495 5.6696 
64146 17286 PR 417 9.82 -70.299 0 
64147 17287 PR 417 9.82 -70.299 2.8348 
64148 17288 PR 417 9.82 -70.299 5.6696 
64206 17346 PR 417 12.275 -73 0 
64207 17347 PR 417 12.275 -73 2.8348 
64208 17348 PR 417 12.275 -73 5.6696 
64236 17376 PR 417 12.275 -71.6495 0 
64237 17377 PR 417 12.275 -71.6495 2.8348 
64238 17378 PR 417 12.275 -71.6495 5.6696 
64266 17406 PR 417 12.275 -70.299 0 
64267 17407 PR 417 12.275 -70.299 2.8348 
64268 17408 PR 417 12.275 -70.299 5.6696 
64326 17466 PR 417 14.73 -73 0 
64327 17467 PR 417 14.73 -73 2.8348 
64328 17468 PR 417 14.73 -73 5.6696 
64356 17496 PR 417 14.73 -71.6495 0 
64357 17497 PR 417 14.73 -71.6495 2.8348 
64358 17498 PR 417 14.73 -71.6495 5.6696 
64386 17526 PR 417 14.73 -70.299 0 
64387 17527 PR 417 14.73 -70.299 2.8348 
64388 17528 PR 417 14.73 -70.299 5.6696 
64446 17586 PR 417 17.185 -73 0 
64447 17587 PR 417 17.185 -73 2.8348 
64448 17588 PR 417 17.185 -73 5.6696 
64476 17616 PR 417 17.185 -71.6495 0 
64477 17617 PR 417 17.185 -71.6495 2.8348 
64478 17618 PR 417 17.185 -71.6495 5.6696 
64506 17646 PR 417 17.185 -70.299 0 
64507 17647 PR 417 17.185 -70.299 2.8348 
64508 17648 PR 417 17.185 -70.299 5.6696 
64566 17706 PR 417 19.64 -73 0 
64567 17707 PR 417 19.64 -73 2.8348 
64568 17708 PR 417 19.64 -73 5.6696 
64596 17736 PR 417 19.64 -71.6495 0 
64597 17737 PR 417 19.64 -71.6495 2.8348 
64598 17738 PR 417 19.64 -71.6495 5.6696 
64626 17766 PR 417 19.64 -70.299 0 
64627 17767 PR 417 19.64 -70.299 2.8348 
64628 17768 PR 417 19.64 -70.299 5.6696 
64686 17826 PR 417 22.095 -73 0 
64687 17827 PR 417 22.095 -73 2.8348 
64688 17828 PR 417 22.095 -73 5.6696 
64716 17856 PR 417 22.095 -71.6495 0 
64717 17857 PR 417 22.095 -71.6495 2.8348 
64718 17858 PR 417 22.095 -71.6495 5.6696 
64746 17886 PR 417 22.095 -70.299 0 
64747 17887 PR 417 22.095 -70.299 2.8348 
64748 17888 PR 417 22.095 -70.299 5.6696 
64806 17946 PR 417 24.55 -73 0 
64807 17947 PR 417 24.55 -73 2.8348 
64808 17948 PR 417 24.55 -73 5.6696 
64836 17976 PR 417 24.55 -71.6495 0 
64837 17977 PR 417 24.55 -71.6495 2.8348 
64838 17978 PR 417 24.55 -71.6495 5.6696 
64866 18006 PR 417 24.55 -70.299 0 
64867 18007 PR 417 24.55 -70.299 2.8348 
64868 18008 PR 417 24.55 -70.299 5.6696 
64926 18066 PR 417 27.005 -73 0 
64927 18067 PR 417 27.005 -73 2.8348 
64928 18068 PR 417 27.005 -73 5.6696 
64956 18096 PR 417 27.005 -71.6495 0 
64957 18097 PR 417 27.005 -71.6495 2.8348 
64958 18098 PR 417 27.005 -71.6495 5.6696 
64986 18126 PR 417 27.005 -70.299 0 
64987 18127 PR 417 27.005 -70.299 2.8348 
64988 18128 PR 417 27.005 -70.299 5.6696 
65046 18186 PR 417 29.46 -73 0 
65047 18187 PR 417 29.46 -73 2.8348 
65048 18188 PR 417 29.46 -73 5.6696 
65076 18216 PR 417 29.46 -71.6495 0 
65077 18217 PR 417 29.46 -71.6495 2.8348 
65078 18218 PR 417 29.46 -71.6495 5.6696 
65106 18246 PR 417 29.46 -70.299 0 
65107 18247 PR 417 29.46 -70.299 2.8348 
65108 18248 PR 417 29.46 -70.299 5.6696 
65166 18306 PR 417 31.915 -73 0 
65167 18307 PR 417 31.915 -73 2.8348 
65168 18308 PR 417 31.915 -73 5.6696 
65196 18336 PR 417 31.915 -71.6495 0 
65197 18337 PR 417 31.915 -71.6495 2.8348 
65198 18338 PR 417 31.915 -71.6495 5.6696 
65226 18366 PR 417 31.915 -70.299 0 
65227 18367 PR 417 31.915 -70.299 2.8348 
65228 18368 PR 417 31.915 -70.299 5.6696 
65286 18426 PR 417 34.37 -73 0 
65287 18427 PR 417 34.37 -73 2.8348 
65288 18428 PR 417 34.37 -73 5.6696 
65316 18456 PR 417 34.37 -71.6495 0 
65317 18457 PR 417 34.37 -71.6495 2.8348 
65318 18458 PR 417 34.37 -71.6495 5.6696 
65346 18486 PR 417 34.37 -70.299 0 
65347 18487 PR 417 34.37 -70.299 2.8348 
65348 18488 PR 417 34.37 -70.299 5.6696 
65406 18546 PR 417 36.825 -73 0 
65407 18547 PR 417 36.825 -73 2.8348 
65408 18548 PR 417 36.825 -73 5.6696 
65436 18576 PR 417 36.825 -71.6495 0 
65437 18577 PR 417 36.825 -71.6495 2.8348 
65438 18578 PR 417 36.825 -71.6495 5.6696 
65466 18606 PR 417 36.825 -70.299 0 
65467 18607 PR 417 36.825 -70.299 2.8348 
65468 18608 PR 417 36.825 -70.299 5.6696 
63696 16836 PR 417 0 -68.9485 0 
63697 16837 PR 417 0 -68.9485 2.8348 
63698 16838 PR 417 0 -68.9485 5.6696 
63816 16956 PR 417 2.455 -68.9485 0 
63817 16957 PR 417 2.455 -68.9485 2.8348 
63818 16958 PR 417 2.455 -68.9485 5.6696 
63936 17076 PR 417 4.91 -68.9485 0 
63937 17077 PR 417 4.91 -68.9485 2.8348 
63938 17078 PR 417 4.91 -68.9485 5.6696 
64056 17196 PR 417 7.365 -68.9485 0 
64057 17197 PR 417 7.365 -68.9485 2.8348 
64058 17198 PR 417 7.365 -68.9485 5.6696 
64176 17316 PR 417 9.82 -68.9485 0 
64177 17317 PR 417 9.82 -68.9485 2.8348 
64178 17318 PR 417 9.82 -68.9485 5.6696 
64296 17436 PR 417 12.275 -68.9485 0 
64297 17437 PR 417 12.275 -68.9485 2.8348 
64298 17438 PR 417 12.275 -68.9485 5.6696 
64416 17556 PR 417 14.73 -68.9485 0 
64417 17557 PR 417 14.73 -68.9485 2.8348 
64418 17558 PR 417 14.73 -68.9485 5.6696 
31293 10431 H 2 9.81305 -62.8252 2.60405 
32709 10903 H 2 11.1834 -62.6897 6.18327 
33319 11107 O 1 16.9012 -62.6617 3.40965 
64536 17676 PR 417 17.185 -68.9485 0 
64537 17677 PR 417 17.185 -68.9485 2.8348 
64538 17678 PR 417 17.185 -68.9485 5.6696 
64656 17796 PR 417 19.64 -68.9485 0 
64657 17797 PR 417 19.64 -68.9485 2.8348 
64658 17798 PR 417 19.64 -68.9485 5.6696 
64776 17916 PR 417 22.095 -68.9485 0 
64777 17917 PR 417 22.095 -68.9485 2.8348 
64778 17918 PR 417 22.095 -68.9485 5.6696 
24722 8241 H 2 24.3429 -62.8788 7.02294 
24723 8241 H 2 25.1106 -63.0025 5.58702 
64896 18036 PR 417 24.55 -68.9485 0 
64897 18037 PR 417 24.55 -68.9485 2.8348 
64898 18038 PR 417 24.55 -68.9485 5.6696 
65016 18156 PR 417 27.005 -68.9485 0 
65017 18157 PR 417 27.005 -68.9485 2.8348 
65018 18158 PR 417 27.005 -68.9485 5.6696 
65136 18276 PR 417 29.46 -68.9485 0 
65137 18277 PR 417 29.46 -68.9485 2.8348 
65138 18278 PR 417 29.46 -68.9485 5.6696 
24281 8094 H 2 31.39 -63.0419 4.3939 
24721 8241 O 1 25.2219 -63.0541 6.57947 
65256 18396 PR 417 31.915 -68.9485 0 
65257 18397 PR 417 31.915 -68.9485 2.8348 
65258 18398 PR 417 31.915 -68.9485 5.6696 
65376 18516 PR 417 34.37 -68.9485 0 
65377 18517 PR 417 34.37 -68.9485 2.8348 
65378 18518 PR 417 34.37 -68.9485 5.6696 
65496 18636 PR 417 36.825 -68.9485 0 
65497 18637 PR 417 36.825 -68.9485 2.8348 
65498 18638 PR 417 36.825 -68.9485 5.6696 
24286 8096 O 1 5.74954 -60.5292 1.87235 
24287 8096 H 2 4.98931 -60.5882 2.51932 
24288 8096 H 2 6.18398 -61.4257 1.78589 
33067 11023 O 1 0.103451 -55.4113 4.28479 
33691 11231 O 1 2.61653 -55.6662 1.69426 
33692 11231 H 2 2.06872 -55.8801 0.885447 
33693 11231 H 2 3.50249 -56.1252 1.62763 
34633 11545 O 1 4.99787 -61.0599 5.97179 
34634 11545 H 2 5.85783 -61.2338 5.49198 
34635 11545 H 2 4.91144 -61.693 6.74104 
37405 12469 O 1 5.6162 -56.3188 3.57209 
37406 12469 H 2 5.81621 -55.3505 3.72197 
37407 12469 H 2 5.46139 -56.4801 2.59742 
38707 12903 O 1 6.8141 -57.3505 6.25372 
38709 12903 H 2 6.0835 -57.547 5.59978 
39802 13268 O 1 2.90489 -59.3736 6.28015 
39803 13268 H 2 3.63654 -60.0481 6.18163 
39804 13268 H 2 3.24491 -58.4717 6.01369 
43498 14500 O 1 3.73059 -60.7106 3.58361 
43499 14500 H 2 4.19612 -60.9601 4.43274 
43500 14500 H 2 2.83104 -60.329 3.79636 
43936 14646 O 1 4.03701 -57.015 5.65355 
43937 14646 H 2 4.45174 -56.2962 6.21157 
43938 14646 H 2 4.28664 -56.8784 4.69488 
44710 14904 O 1 5.00734 -56.8669 0.975711 
44711 14904 H 2 5.54826 -56.5997 0.17821 
44712 14904 H 2 4.5432 -57.7327 0.788757 
46292 15431 H 2 7.8169 -60.5792 4.09846 
46293 15431 H 2 7.8234 -61.2991 5.56419 
46600 15534 O 1 3.93801 -59.2248 0.294351 
46601 15534 H 2 3.04316 -59.6065 0.525865 
46602 15534 H 2 4.65489 -59.7648 0.735401 
46994 15665 H 2 7.07393 -59.461 2.48014 
46995 15665 H 2 7.85124 -58.2274 3.21537 
24612 8204 H 2 7.71467 -56.6183 4.61774 
46291 15431 O 1 7.36164 -61.2549 4.67828 
33580 11194 O 1 5.44509 -55.092 6.87952 
34713 11571 H 2 2.7628 -56.6565 6.89556 
38708 12903 H 2 6.61284 -56.4953 6.73136 
46993 15665 O 1 7.96626 -59.1157 2.77092 
47938 15980 O 1 8.16569 -55.378 1.73403 
47940 15980 H 2 8.25495 -55.7797 2.64544 
24610 8204 O 1 8.53001 -56.6349 4.03899 
24611 8204 H 2 9.323 -56.3394 4.57178 
24688 8230 O 1 13.9317 -55.1689 5.9155 
25763 8588 H 2 8.25062 -58.3991 0.856435 
28777 9593 O 1 10.559 -60.3297 0.238808 
28778 9593 H 2 10.6382 -59.6015 0.919636 
28779 9593 H 2 10.3982 -61.2019 0.700771 
29030 9677 H 2 14.9957 -56.9632 1.44586 
29902 9968 O 1 14.7765 -61.212 2.42829 
29903 9968 H 2 13.8517 -61.1662 2.80606 
29904 9968 H 2 15.2841 -60.3908 2.68888 
31126 10376 O 1 11.7044 -58.3596 6.14021 
31127 10376 H 2 10.7211 -58.5205 6.05585 
31128 10376 H 2 12.0829 -58.9673 6.83844 
31291 10431 O 1 10.4635 -62.3748 1.99245 
31292 10431 H 2 11.2073 -61.9783 2.53052 
32707 10903 O 1 11.2787 -61.7312 5.91441 
32708 10903 H 2 11.078 -61.1436 6.6983 
33478 11160 O 1 10.4398 -55.8227 5.76551 
33480 11160 H 2 11.0248 -56.6223 5.90164 
33506 11169 H 2 15.4185 -60.9134 0.58165 
38264 12755 H 2 12.9422 -58.0782 0.30237 
38265 12755 H 2 12.753 -56.47 0.513331 
39286 13096 O 1 10.7015 -58.8639 2.57368 
39287 13096 H 2 11.0492 -57.9999 2.93779 
39288 13096 H 2 9.71947 -58.9291 2.75073 
40102 13368 O 1 12.2515 -60.9293 3.49915 
40103 13368 H 2 11.7386 -60.1196 3.21402 
40104 13368 H 2 11.9762 -61.1894 4.42465 
40252 13418 O 1 9.10384 -58.8125 6.39379 
40253 13418 H 2 8.78506 -59.6763 6.78383 
40254 13418 H 2 8.33333 -58.1808 6.3086 
41944 13982 O 1 12.6027 -56.8414 3.27199 
41945 13982 H 2 13.0969 -57.2204 4.0544 
41946 13982 H 2 13.0753 -57.0908 2.42671 
46048 15350 O 1 14.3024 -57.7718 5.38529 
46049 15350 H 2 13.4719 -58.2258 5.70813 
46050 15350 H 2 14.2916 -56.8139 5.67225 
46420 15474 O 1 11.6985 -55.1343 0.362905 
47939 15980 H 2 8.24489 -56.0971 1.04363 
33479 11160 H 2 10.1939 -55.4346 6.65369 
25762 8588 O 1 8.28636 -57.623 0.226857 
38263 12755 O 1 13.3994 -57.2308 0.572332 
36591 12197 H 2 16.8608 -62.0837 4.99998 
37073 12358 H 2 18.7357 -61.285 1.14581 
37074 12358 H 2 20.0786 -61.444 2.06129 
29031 9677 H 2 16.2519 -57.6879 2.19653 
27439 9147 O 1 21.7767 -61.3842 1.48482 
27440 9147 H 2 22.4224 -62.0558 1.1215 
27441 9147 H 2 22.2814 -60.6246 1.89504 
27795 9265 H 2 20.9804 -60.5407 0.149586 
27937 9313 O 1 19.7362 -57.6661 0.759603 
27938 9313 H 2 18.986 -57.5062 0.118009 
27939 9313 H 2 19.6686 -57.0194 1.51937 
27964 9322 O 1 16.9995 -58.1796 4.99335 
27965 9322 H 2 16.0294 -57.9669 5.11006 
27966 9322 H 2 17.3536 -58.5922 5.83263 
29029 9677 O 1 15.7165 -56.846 2.12908 
29179 9727 O 1 19.3337 -60.6621 4.86835 
29180 9727 H 2 19.3068 -60.9945 3.9256 
29181 9727 H 2 18.4864 -60.9151 5.33527 
30522 10174 H 2 21.4118 -57.2017 0.341268 
33320 11107 H 2 16.0717 -62.3536 2.94394 
33321 11107 H 2 17.6979 -62.4591 2.84031 
33505 11169 O 1 16.0928 -60.3812 0.0696597 
33507 11169 H 2 16.5388 -59.7296 0.6833 
34418 11473 H 2 23.5134 -56.8514 1.16388 
35521 11841 O 1 20.8943 -59.5352 6.72015 
35522 11841 H 2 20.3577 -59.8873 5.95327 
36250 12084 O 1 23.1892 -59.4366 2.56212 
36252 12084 H 2 23.1058 -59.378 3.55691 
36589 12197 O 1 16.8723 -61.4961 5.80909 
36590 12197 H 2 15.9826 -61.0511 5.91053 
37072 12358 O 1 19.0847 -61.3351 2.0816 
37762 12588 O 1 19.5798 -57.0881 5.08974 
37763 12588 H 2 20.0896 -57.5703 4.37725 
37764 12588 H 2 18.6119 -57.3321 5.03022 
43039 14347 O 1 17.0083 -59.3158 2.58032 
43040 14347 H 2 17.8012 -59.9173 2.48304 
43041 14347 H 2 17.0259 -58.8843 3.48224 
44871 14957 H 2 15.8485 -55.7054 3.3946 
47519 15840 H 2 22.273 -59.0851 5.73816 
47518 15840 O 1 23.1089 -59.0224 5.19288 
47520 15840 H 2 23.5467 -58.138 5.35444 
40287 13429 H 2 19.135 -58.8073 7.06526 
46272 15424 H 2 22.5958 -61.7589 6.3176 
29689 9897 O 1 19.1226 -55.5538 2.28556 
32427 10809 H 2 20.373 -55.7278 5.70267 
47552 15851 H 2 17.7662 -55.0886 6.3033 
29691 9897 H 2 18.9865 -55.1379 3.18473 
29690 9897 H 2 18.3803 -55.2779 1.67493 
32426 10809 H 2 21.2847 -55.0448 6.87268 
44869 14957 O 1 15.8991 -55.0604 4.15716 
24282 8094 H 2 31.3336 -61.9149 3.21356 
37501 12501 O 1 24.5247 -62.4254 4.0219 
36251 12084 H 2 23.6439 -58.6156 2.21687 
27496 9166 O 1 24.8468 -56.9986 5.66508 
27497 9166 H 2 25.4758 -57.7527 5.85391 
27498 9166 H 2 25.0737 -56.2207 6.25106 
29254 9752 O 1 28.5374 -61.2834 4.69699 
29255 9752 H 2 29.4421 -61.6175 4.43247 
29256 9752 H 2 28.409 -61.412 5.68033 
29411 9804 H 2 30.1082 -55.2202 3.97108 
30898 10300 O 1 31.0429 -56.6257 4.11287 
30899 10300 H 2 31.0513 -57.1275 4.97781 
32617 10873 O 1 27.5438 -59.6629 1.07927 
32619 10873 H 2 28.0143 -58.9606 1.61358 
34417 11473 O 1 24.2203 -57.0347 1.84703 
34419 11473 H 2 25.1007 -56.6964 1.51467 
37502 12501 H 2 25.3607 -62.1827 3.52973 
37503 12501 H 2 23.7287 -62.1633 3.47632 
38302 12768 O 1 29.2478 -55.5751 1.11974 
38304 12768 H 2 29.8221 -55.6122 0.301919 
38517 12839 H 2 27.6141 -55.9405 1.12808 
40732 13578 O 1 30.5327 -58.6168 0.161307 
42250 14084 O 1 29.1144 -57.8771 2.46069 
42251 14084 H 2 29.1044 -57.0434 1.90861 
42252 14084 H 2 29.7498 -57.7636 3.22444 
42328 14110 O 1 25.8192 -59.6682 5.36955 
42329 14110 H 2 24.8251 -59.6059 5.28127 
42330 14110 H 2 26.1908 -60.1832 4.59714 
42985 14329 O 1 29.1268 -58.4119 5.54962 
42986 14329 H 2 29.9863 -58.9136 5.64714 
42987 14329 H 2 28.5135 -58.9164 4.94193 
45863 15288 H 2 26.6583 -56.1056 2.9823 
45864 15288 H 2 25.782 -56.2635 4.35115 
47407 15803 O 1 28.5105 -55.8977 6.38907 
47408 15803 H 2 27.5605 -55.9082 6.70109 
47409 15803 H 2 28.7257 -56.7684 5.94671 
47878 15960 O 1 26.6708 -61.4985 2.79498 
47879 15960 H 2 26.924 -60.9145 2.02375 
47880 15960 H 2 27.4346 -61.5508 3.43834 
24280 8094 O 1 31.0583 -62.1305 4.15045 
25552 8518 O 1 31.4074 -59.8746 5.60412 
25553 8518 H 2 31.2601 -60.6782 5.02744 
29343 9781 H 2 26.5953 -60.3962 6.78367 
32618 10873 H 2 26.9621 -59.2259 0.393252 
38515 12839 O 1 26.6327 -56.0139 0.950494 
40733 13578 H 2 29.9303 -58.7463 0.948921 
45862 15288 O 1 26.4224 -55.6775 3.8547 
33069 11023 H 2 38.8656 -56.2508 4.11979 
37960 12654 O 1 38.6799 -61.5758 5.87404 
37961 12654 H 2 39.0021 -62.4614 5.5394 
40734 13578 H 2 31.4671 -58.4561 0.479219 
24193 8065 O 1 34.5744 -61.3311 1.43435 
24194 8065 H 2 35.2578 -61.8191 1.97726 
24195 8065 H 2 34.7758 -60.3517 1.44727 
25126 8376 O 1 32.8328 -57.8145 1.20279 
25128 8376 H 2 33.6758 -58.228 1.54695 
25554 8518 H 2 32.3888 -59.7327 5.7337 
25957 8653 O 1 35.2621 -58.7187 2.18258 
25958 8653 H 2 35.8151 -58.0799 1.64776 
25959 8653 H 2 35.2357 -58.4192 3.13631 
26344 8782 O 1 36.131 -61.1899 4.03881 
26345 8782 H 2 35.4266 -61.4116 4.71308 
26346 8782 H 2 35.9293 -60.3019 3.62569 
30900 10300 H 2 31.9662 -56.302 3.90627 
31972 10658 O 1 35.3087 -58.0801 4.75649 
31973 10658 H 2 35.2192 -57.1984 5.21987 
31974 10658 H 2 34.8631 -58.79 5.30186 
37315 12439 O 1 35.3655 -55.408 2.04707 
37317 12439 H 2 34.5898 -55.3791 1.41668 
37962 12654 H 2 37.8651 -61.3027 5.36273 
39284 13095 H 2 34.5223 -60.5824 6.63818 
40081 13361 O 1 31.914 -61.5896 1.69737 
40082 13361 H 2 31.4786 -61.0985 0.942866 
40083 13361 H 2 32.9073 -61.5584 1.58623 
40648 13550 O 1 33.9362 -56.2269 6.50463 
40649 13550 H 2 33.1625 -56.6451 6.98057 
40650 13550 H 2 33.668 -55.9991 5.56857 
42751 14251 O 1 33.4635 -55.4478 3.99812 
42752 14251 H 2 34.1959 -55.4939 3.31887 
39283 13095 O 1 34.0131 -59.7668 6.36324 
47404 15802 O 1 33.0318 -55.0159 0.746265 
25127 8376 H 2 32.9653 -56.8294 1.09354 
47406 15802 H 2 32.3482 -55.2631 0.0595534 
63609 16749 PR 417 0 -73 8.5044 
63610 16750 PR 417 0 -73 11.3392 
63639 16779 PR 417 0 -71.6495 8.5044 
63640 16780 PR 417 0 -71.6495 11.3392 
63669 16809 PR 417 0 -70.299 8.5044 
63670 16810 PR 417 0 -70.299 11.3392 
63729 16869 PR 417 2.455 -73 8.5044 
63730 16870 PR 417 2.455 -73 11.3392 
63759 16899 PR 417 2.455 -71.6495 8.5044 
63760 16900 PR 417 2.455 -71.6495 11.3392 
63789 16929 PR 417 2.455 -70.299 8.5044 
63790 16930 PR 417 2.455 -70.299 11.3392 
63849 16989 PR 417 4.91 -73 8.5044 
63850 16990 PR 417 4.91 -73 11.3392 
63879 17019 PR 417 4.91 -71.6495 8.5044 
63880 17020 PR 417 4.91 -71.6495 11.3392 
63909 17049 PR 417 4.91 -70.299 8.5044 
63910 17050 PR 417 4.91 -70.299 11.3392 
63969 17109 PR 417 7.365 -73 8.5044 
63970 17110 PR 417 7.365 -73 11.3392 
63999 17139 PR 417 7.365 -71.6495 8.5044 
64000 17140 PR 417 7.365 -71.6495 11.3392 
64029 17169 PR 417 7.365 -70.299 8.5044 
64030 17170 PR 417 7.365 -70.299 11.3392 
64089 17229 PR 417 9.82 -73 8.5044 
64090 17230 PR 417 9.82 -73 11.3392 
64119 17259 PR 417 9.82 -71.6495 8.5044 
64120 17260 PR 417 9.82 -71.6495 11.3392 
64149 17289 PR 417 9.82 -70.299 8.5044 
64150 17290 PR 417 9.82 -70.299 11.3392 
64209 17349 PR 417 12.275 -73 8.5044 
64210 17350 PR 417 12.275 -73 11.3392 
64239 17379 PR 417 12.275 -71.6495 8.5044 
64240 17380 PR 417 12.275 -71.6495 11.3392 
64269 17409 PR 417 12.275 -70.299 8.5044 
64270 17410 PR 417 12.275 -70.299 11.3392 
64329 17469 PR 417 14.73 -73 8.5044 
64330 17470 PR 417 14.73 -73 11.3392 
64359 17499 PR 417 14.73 -71.6495 8.5044 
64360 17500 PR 417 14.73 -71.6495 11.3392 
64389 17529 PR 417 14.73 -70.299 8.5044 
64390 17530 PR 417 14.73 -70.299 11.3392 
64449 17589 PR 417 17.185 -73 8.5044 
64450 17590 PR 417 17.185 -73 11.3392 
64479 17619 PR 417 17.185 -71.6495 8.5044 
64480 17620 PR 417 17.185 -71.6495 11.3392 
64509 17649 PR 417 17.185 -70.299 8.5044 
64510 17650 PR 417 17.185 -70.299 11.3392 
64569 17709 PR 417 19.64 -73 8.5044 
64570 17710 PR 417 19.64 -73 11.3392 
64599 17739 PR 417 19.64 -71.6495 8.5044 
64600 17740 PR 417 19.64 -71.6495 11.3392 
64629 17769 PR 417 19.64 -70.299 8.5044 
64630 17770 PR 417 19.64 -70.299 11.3392 
64689 17829 PR 417 22.095 -73 8.5044 
64690 17830 PR 417 22.095 -73 11.3392 
64719 17859 PR 417 22.095 -71.6495 8.5044 
64720 17860 PR 417 22.095 -71.6495 11.3392 
64749 17889 PR 417 22.095 -70.299 8.5044 
64750 17890 PR 417 22.095 -70.299 11.3392 
64809 17949 PR 417 24.55 -73 8.5044 
64810 17950 PR 417 24.55 -73 11.3392 
64839 17979 PR 417 24.55 -71.6495 8.5044 
64840 17980 PR 417 24.55 -71.6495 11.3392 
64869 18009 PR 417 24.55 -70.299 8.5044 
64870 18010 PR 417 24.55 -70.299 11.3392 
64929 18069 PR 417 27.005 -73 8.5044 
64930 18070 PR 417 27.005 -73 11.3392 
64959 18099 PR 417 27.005 -71.6495 8.5044 
64960 18100 PR 417 27.005 -71.6495 11.3392 
64989 18129 PR 417 27.005 -70.299 8.5044 
64990 18130 PR 417 27.005 -70.299 11.3392 
65049 18189 PR 417 29.46 -73 8.5044 
65050 18190 PR 417 29.46 -73 11.3392 
65079 18219 PR 417 29.46 -71.6495 8.5044 
65080 18220 PR 417 29.46 -71.6495 11.3392 
65109 18249 PR 417 29.46 -70.299 8.5044 
65110 18250 PR 417 29.46 -70.299 11.3392 
65169 18309 PR 417 31.915 -73 8.5044 
65170 18310 PR 417 31.915 -73 11.3392 
65199 18339 PR 417 31.915 -71.6495 8.5044 
65200 18340 PR 417 31.915 -71.6495 11.3392 
65229 18369 PR 417 31.915 -70.299 8.5044 
65230 18370 PR 417 31.915 -70.299 11.3392 
65289 18429 PR 417 34.37 -73 8.5044 
65290 18430 PR 417 34.37 -73 11.3392 
65319 18459 PR 417 34.37 -71.6495 8.5044 
65320 18460 PR 417 34.37 -71.6495 11.3392 
65349 18489 PR 417 34.37 -70.299 8.5044 
65350 18490 PR 417 34.37 -70.299 11.3392 
65409 18549 PR 417 36.825 -73 8.5044 
65410 18550 PR 417 36.825 -73 11.3392 
65439 18579 PR 417 36.825 -71.6495 8.5044 
65440 18580 PR 417 36.825 -71.6495 11.3392 
65469 18609 PR 417 36.825 -70.299 8.5044 
65470 18610 PR 417 36.825 -70.299 11.3392 
45274 15092 O 1 2.08786 -63.4218 8.1002 
45276 15092 H 2 3.08542 -63.4063 8.16829 
47783 15928 H 2 0.82438 -63.1149 9.66081 
63699 16839 PR 417 0 -68.9485 8.5044 
63700 16840 PR 417 0 -68.9485 11.3392 
63819 16959 PR 417 2.455 -68.9485 8.5044 
63820 16960 PR 417 2.455 -68.9485 11.3392 
63939 17079 PR 417 4.91 -68.9485 8.5044 
63940 17080 PR 417 4.91 -68.9485 11.3392 
64059 17199 PR 417 7.365 -68.9485 8.5044 
64060 17200 PR 417 7.365 -68.9485 11.3392 
33986 11329 H 2 8.25436 -63.0687 13.3112 
64179 17319 PR 417 9.82 -68.9485 8.5044 
64180 17320 PR 417 9.82 -68.9485 11.3392 
64299 17439 PR 417 12.275 -68.9485 8.5044 
64300 17440 PR 417 12.275 -68.9485 11.3392 
64419 17559 PR 417 14.73 -68.9485 8.5044 
64420 17560 PR 417 14.73 -68.9485 11.3392 
26572 8858 O 1 17.7817 -64.0749 8.78613 
26573 8858 H 2 17.89 -63.0864 8.68008 
26574 8858 H 2 17.295 -64.4437 7.99427 
26592 8864 H 2 23.0499 -62.7574 13.7408 
64539 17679 PR 417 17.185 -68.9485 8.5044 
64540 17680 PR 417 17.185 -68.9485 11.3392 
64659 17799 PR 417 19.64 -68.9485 8.5044 
64660 17800 PR 417 19.64 -68.9485 11.3392 
64779 17919 PR 417 22.095 -68.9485 8.5044 
64780 17920 PR 417 22.095 -68.9485 11.3392 
24637 8213 O 1 30.8577 -63.0514 8.81466 
33518 11173 H 2 26.73 -62.5529 12.8403 
43092 14364 H 2 28.0541 -62.6123 10.6018 
64899 18039 PR 417 24.55 -68.9485 8.5044 
64900 18040 PR 417 24.55 -68.9485 11.3392 
65019 18159 PR 417 27.005 -68.9485 8.5044 
65020 18160 PR 417 27.005 -68.9485 11.3392 
65139 18279 PR 417 29.46 -68.9485 8.5044 
65140 18280 PR 417 29.46 -68.9485 11.3392 
24638 8213 H 2 29.8652 -63.0767 8.93434 
26074 8692 O 1 28.132 -62.9645 8.91633 
26076 8692 H 2 27.9248 -63.8425 8.48476 
26591 8864 H 2 24.6085 -63.1066 14.0803 
65259 18399 PR 417 31.915 -68.9485 8.5044 
65260 18400 PR 417 31.915 -68.9485 11.3392 
65379 18519 PR 417 34.37 -68.9485 8.5044 
65380 18520 PR 417 34.37 -68.9485 11.3392 
65499 18639 PR 417 36.825 -68.9485 8.5044 
65500 18640 PR 417 36.825 -68.9485 11.3392 
33326 11109 H 2 33.0425 -62.6778 14.1633 
34712 11571 H 2 1.24614 -56.8 7.48359 
34568 11523 H 2 1.3536 -62.2343 13.2073 
44713 14905 O 1 5.8527 -62.2305 10.7365 
45275 15092 H 2 1.75272 -62.4998 7.90598 
47782 15928 O 1 0.445288 -62.2853 10.0707 
24127 8043 O 1 1.18996 -60.8573 7.76261 
24128 8043 H 2 1.81781 -60.2021 7.34248 
24129 8043 H 2 0.439899 -61.0525 7.13069 
27727 9243 O 1 4.61263 -62.1915 8.37963 
27728 9243 H 2 4.00809 -61.4998 8.77473 
27729 9243 H 2 5.24601 -62.52 9.08027 
29041 9681 O 1 7.7302 -60.2879 11.0344 
29043 9681 H 2 7.17414 -59.4643 10.9229 
31715 10572 H 2 5.31 -60.3021 13.933 
31716 10572 H 2 6.0867 -61.7356 13.8409 
33145 11049 O 1 3.23944 -61.1828 11.0595 
33146 11049 H 2 3.04369 -61.1965 12.0401 
33147 11049 H 2 2.38781 -61.2972 10.548 
34567 11523 O 1 2.04839 -61.5738 13.4919 
34711 11571 O 1 2.05256 -56.2103 7.44004 
37205 12402 H 2 7.25403 -60.9186 7.88168 
39040 13014 O 1 5.81437 -59.2397 8.01137 
39041 13014 H 2 6.25512 -58.5028 7.49881 
39042 13014 H 2 5.37021 -59.8696 7.37419 
40630 13544 O 1 4.46691 -56.9967 12.5718 
40632 13544 H 2 4.52265 -57.353 11.639 
44534 14845 H 2 6.35421 -56.6634 12.3673 
44535 14845 H 2 6.87187 -55.3116 13.1232 
44714 14905 H 2 6.59007 -61.5882 10.9455 
44715 14905 H 2 4.98397 -61.8586 11.0635 
47464 15822 O 1 6.19111 -57.993 10.3927 
47465 15822 H 2 6.93964 -57.4241 10.0521 
47466 15822 H 2 5.8271 -58.5479 9.64467 
47784 15928 H 2 0.419747 -61.5568 9.38608 
33985 11329 O 1 7.62588 -62.4599 13.7953 
34112 11371 H 2 4.90283 -57.987 13.8235 
40631 13544 H 2 3.77043 -56.2804 12.6139 
44533 14845 O 1 7.16033 -56.1564 12.6726 
36573 12191 H 2 7.57544 -55.1109 9.56615 
37204 12402 O 1 8.0647 -61.1155 7.33025 
34396 11466 O 1 9.89671 -61.6946 9.1472 
29042 9681 H 2 8.5315 -60.0759 11.5938 
25918 8640 O 1 8.99178 -57.5989 13.9301 
25919 8640 H 2 8.21196 -57.2072 13.4419 
29374 9792 O 1 11.1631 -56.8556 8.59982 
29375 9792 H 2 11.552 -57.4735 7.91643 
29376 9792 H 2 11.3313 -57.2223 9.51482 
32176 10726 O 1 14.3359 -58.7734 11.914 
32177 10726 H 2 15.0348 -59.3601 11.5049 
32178 10726 H 2 14.7313 -57.8785 12.1208 
32182 10728 O 1 14.955 -58.5612 8.69757 
32183 10728 H 2 15.4772 -57.7244 8.53272 
32184 10728 H 2 15.4519 -59.1428 9.34162 
34397 11466 H 2 9.33678 -61.4364 9.9345 
34398 11466 H 2 10.8418 -61.8352 9.44213 
34600 11534 O 1 13.3753 -55.4731 10.7051 
34601 11534 H 2 14.3232 -55.6907 10.4723 
35773 11925 O 1 8.31085 -56.6532 9.25187 
35774 11925 H 2 8.85827 -56.4098 10.0525 
35775 11925 H 2 8.91735 -56.8944 8.49424 
36244 12082 O 1 11.9466 -56.3112 12.8445 
36246 12082 H 2 12.2301 -55.7591 13.6286 
37206 12402 H 2 8.79754 -61.4502 7.92262 
38101 12701 O 1 9.61584 -55.966 11.4714 
38102 12701 H 2 8.75353 -56.0875 11.963 
38103 12701 H 2 10.3668 -56.3343 12.0196 
42055 14019 O 1 12.8839 -61.2137 12.5082 
42056 14019 H 2 13.3216 -60.3222 12.625 
42057 14019 H 2 12.3771 -61.4475 13.3379 
44287 14763 O 1 11.8917 -58.5502 10.6707 
44288 14763 H 2 12.0333 -59.0482 9.81512 
44289 14763 H 2 12.7478 -58.524 11.1868 
44698 14900 O 1 15.0259 -61.9178 9.05885 
44700 14900 H 2 15.4379 -61.3294 9.7546 
44707 14903 O 1 9.95816 -59.4947 12.3207 
44708 14903 H 2 10.5925 -59.0909 11.6615 
44709 14903 H 2 9.58506 -58.776 12.9075 
44890 14964 O 1 12.5977 -59.6945 8.2229 
44891 14964 H 2 12.5543 -60.5598 8.72221 
44892 14964 H 2 13.5072 -59.2929 8.3303 
45430 15144 O 1 12.4943 -61.7988 9.91495 
45431 15144 H 2 13.3963 -62.0593 9.5708 
45432 15144 H 2 12.5452 -61.6472 10.9021 
43741 14581 O 1 11.9038 -58.7067 14.0816 
43742 14581 H 2 11.3274 -59.2817 13.5009 
43743 14581 H 2 11.9829 -57.7963 13.6756 
36245 12082 H 2 12.4875 -56.0549 12.0434 
34602 11534 H 2 12.859 -55.2943 9.86753 
45291 15097 H 2 14.4431 -55.1344 13.0534 
25937 8646 H 2 14.567 -55.0188 7.52473 
35523 11841 H 2 20.7459 -60.112 7.52344 
46271 15424 H 2 23.1732 -60.9927 7.63901 
44699 14900 H 2 15.7278 -62.2052 8.40718 
24855 8285 H 2 22.3487 -55.644 9.02203 
25069 8357 O 1 20.6933 -61.1597 8.88383 
25070 8357 H 2 21.0223 -60.8255 9.76704 
25071 8357 H 2 21.366 -61.7884 8.49379 
26087 8696 H 2 17.469 -61.1328 13.9869 
27187 9063 O 1 22.4305 -58.7282 13.8948 
27189 9063 H 2 23.2558 -59.2922 13.9217 
31705 10569 O 1 17.413 -57.0465 8.87536 
31706 10569 H 2 17.8495 -56.801 9.74094 
31707 10569 H 2 17.4971 -56.2855 8.23205 
34813 11605 O 1 15.8845 -56.4986 12.1706 
34814 11605 H 2 16.6644 -57.1196 12.0929 
34815 11605 H 2 16.214 -55.5677 12.3279 
35208 11736 H 2 19.4213 -56.3185 13.5129 
38257 12753 O 1 21.768 -61.6267 12.9459 
38258 12753 H 2 20.8914 -61.7074 12.4715 
38259 12753 H 2 21.6121 -61.3157 13.8835 
39125 13042 H 2 23.1433 -56.6541 11.0006 
39331 13111 O 1 19.3407 -61.4747 11.837 
39332 13111 H 2 18.7667 -62.0242 11.2299 
39333 13111 H 2 18.7618 -60.9773 12.4832 
40129 13377 O 1 23.1944 -59.4217 8.37165 
40130 13377 H 2 22.8976 -59.645 9.30011 
40131 13377 H 2 22.4172 -59.0722 7.84831 
40285 13429 O 1 18.1708 -58.9802 7.2661 
40286 13429 H 2 17.8436 -58.3097 7.93196 
40573 13525 O 1 20.5313 -57.3484 12.471 
40574 13525 H 2 20.9962 -56.7893 11.7844 
40575 13525 H 2 21.2092 -57.8596 12.9993 
40753 13585 O 1 18.882 -55.5299 10.6129 
40755 13585 H 2 18.9809 -55.4925 11.6072 
41257 13753 O 1 18.0295 -61.3476 8.68578 
41258 13753 H 2 19.0169 -61.3676 8.84248 
41259 13753 H 2 17.8263 -60.7423 7.91621 
41755 13919 O 1 17.985 -58.2694 11.9468 
41756 13919 H 2 18.9217 -57.9203 11.9729 
41757 13919 H 2 17.8683 -58.9641 12.6566 
43159 14387 O 1 16.5089 -59.9654 10.4378 
43160 14387 H 2 17.1129 -60.4916 9.83917 
43161 14387 H 2 17.0454 -59.2871 10.9398 
46270 15424 O 1 22.8762 -61.8736 7.2706 
46327 15443 O 1 22.3578 -59.9663 10.8529 
46328 15443 H 2 22.7353 -59.0998 11.1795 
46329 15443 H 2 22.2233 -60.5844 11.6274 
26086 8696 O 1 17.7543 -60.2013 13.7614 
24853 8285 O 1 22.9054 -55.7604 8.19954 
24269 8090 H 2 20.5889 -55.6262 10.3484 
35206 11736 O 1 18.6933 -55.6849 13.7749 
24268 8090 O 1 21.5682 -55.5245 10.5235 
39126 13042 H 2 24.3071 -57.5817 10.3285 
24424 8142 O 1 25.6119 -60.9172 10.8015 
24425 8142 H 2 24.9557 -61.5421 10.3784 
24426 8142 H 2 26.4426 -61.4192 11.0423 
24639 8213 H 2 31.1471 -62.1126 8.62783 
24854 8285 H 2 23.7965 -56.1383 8.45094 
25167 8389 H 2 30.8123 -57.923 10.5124 
26075 8692 H 2 27.6976 -62.2277 8.39833 
26149 8717 O 1 29.1419 -56.9882 8.81139 
26150 8717 H 2 28.6289 -57.8444 8.87285 
26151 8717 H 2 28.9368 -56.5384 7.94208 
27706 9236 O 1 31.3422 -60.4273 8.2923 
27708 9236 H 2 31.2509 -60.1808 7.32747 
29341 9781 O 1 26.8382 -61.1404 7.40591 
29342 9781 H 2 26.27 -61.9391 7.208 
31058 10353 H 2 25.216 -57.6619 14.1649 
33364 11122 O 1 25.3388 -58.029 9.06286 
33365 11122 H 2 24.6434 -58.6555 8.71085 
33366 11122 H 2 26.1879 -58.5313 9.22608 
33403 11135 O 1 28.3537 -59.0556 13.1383 
33404 11135 H 2 28.7691 -58.2878 12.6505 
33405 11135 H 2 27.3616 -59.0307 13.016 
33517 11173 O 1 26.2409 -62.4575 13.7074 
36022 12008 O 1 27.7209 -59.2236 9.18545 
36023 12008 H 2 28.4957 -59.4398 9.77951 
36024 12008 H 2 27.4866 -60.0268 8.63766 
39124 13042 O 1 23.6842 -57.4887 11.1052 