ITEM: TIMESTEP
0
ITEM: NUMBER OF ATOMS
3942
ITEM: BOX BOUNDS pp pp pp
0.0000000000000000e+00 5.0000000000000000e+01
0.0000000000000000e+00 5.0000000000000000e+01
0.0000000000000000e+00 5.0000000000000000e+01
ITEM: ATOMS id mol element type x y z 
3292 1098 O 1 3.22653 5.49284 1.92511 
3293 1098 H 2 2.27025 5.50359 1.96556 
2044 682 O 1 7.45773 4.41862 2.8768 
2045 682 H 2 7.828 3.53607 2.89218 
2046 682 H 2 8.16853 4.97147 2.55222 
2629 877 O 1 9.3563 6.21395 2.01114 
3422 1141 H 2 6.33987 6.15782 2.54604 
3550 1184 O 1 11.1218 5.28383 3.90681 
3552 1184 H 2 10.9281 5.27951 4.84421 
3551 1184 H 2 11.9976 4.90323 3.84094 
2631 877 H 2 9.97405 5.97734 2.70298 
656 219 H 2 16.995 2.81849 5.65585 
657 219 H 2 17.6711 1.46494 5.60438 
667 223 O 1 18.4381 0.421907 4.40872 
1294 432 O 1 17.2942 5.34634 3.2453 
1295 432 H 2 17.7942 5.8104 2.5738 
1296 432 H 2 16.6199 5.96945 3.5159 
655 219 O 1 17.2493 2.07797 6.20646 
668 223 H 2 18.9968 0.770313 3.71391 
358 120 O 1 19.6186 0.936323 1.91696 
359 120 H 2 19.6903 1.84918 1.63807 
360 120 H 2 20.4523 0.54121 1.66165 
1213 405 O 1 23.1731 1.95776 2.91806 
1214 405 H 2 23.9797 2.46971 2.85821 
1215 405 H 2 22.9786 1.92504 3.85471 
3928 1444 C 3 22.0085 5.5605 0.415952 
2371 791 O 1 24.5532 2.23306 5.83135 
2373 791 H 2 24.6844 1.30075 6.00406 
882 294 H 2 22.617 0.643879 1.78727 
1834 612 O 1 25.5949 3.26581 3.49592 
1835 612 H 2 25.3173 2.91659 4.34282 
1836 612 H 2 25.6928 4.2063 3.6446 
3382 1128 O 1 27.0065 1.62913 1.7606 
3383 1128 H 2 27.9295 1.81927 1.92844 
3384 1128 H 2 26.53 2.2145 2.34926 
316 106 O 1 33.0485 4.34374 5.22072 
317 106 H 2 32.9649 4.80766 4.38764 
318 106 H 2 33.4751 4.97196 5.80348 
3739 1255 C 3 31.5003 2.25177 0.688517 
742 248 O 1 39.2372 1.41883 5.2785 
743 248 H 2 38.3942 1.69454 4.91875 
744 248 H 2 39.8056 2.18131 5.16953 
2389 797 O 1 40.9665 3.53154 4.88477 
2390 797 H 2 41.4878 3.22498 4.1428 
2391 797 H 2 41.5491 3.44536 5.63932 
3390 1130 H 2 46.5778 1.97598 6.21933 
3740 1256 C 3 44.5068 2.75194 3.60368 
3294 1098 H 2 3.46575 6.38237 1.66485 
901 301 O 1 5.97586 11.1554 5.51966 
902 301 H 2 5.32843 11.4358 6.16655 
1315 439 O 1 4.09648 8.03571 1.21778 
1316 439 H 2 4.02317 8.68136 1.92062 
1317 439 H 2 4.95679 7.63656 1.34735 
2259 753 H 2 0.944167 11.0454 5.58452 
2672 891 H 2 5.28274 10.0591 4.19826 
3133 1045 O 1 2.42494 10.6742 4.56008 
3134 1045 H 2 2.76507 11.5677 4.60855 
3135 1045 H 2 3.16072 10.1546 4.23639 
3805 1321 C 3 4.45264 6.29824 5.29797 
2671 891 O 1 4.8255 9.46944 3.5987 
2673 891 H 2 5.42901 8.73666 3.47598 
2257 753 O 1 0.382108 11.4598 6.2392 
2630 877 H 2 9.89716 6.30214 1.22633 
903 301 H 2 6.51018 11.9338 5.36198 
3421 1141 O 1 6.47726 7.0731 2.30185 
3423 1141 H 2 7.41724 7.13797 2.13316 
3804 1320 C 3 8.50177 7.63154 5.11604 
3792 1308 C 3 9.2758 12.0894 0.81792 
1618 540 O 1 16.5596 12.3672 5.59039 
2659 887 O 1 18.3748 7.0256 1.28001 
2661 887 H 2 17.646 7.34115 0.745665 
3803 1319 C 3 14.3849 9.3077 1.82562 
3822 1338 C 3 18.1712 11.0549 1.59574 
2660 887 H 2 19.1557 7.3777 0.852818 
224 75 H 2 28.5583 12.2015 6.11641 
223 75 O 1 29.4972 12.3755 6.18195 
3733 1249 C 3 28.6524 12.2583 1.00969 
799 267 O 1 33.2833 6.57349 3.45619 
800 267 H 2 32.9051 7.40371 3.16646 
801 267 H 2 33.6327 6.76007 4.32758 
1877 626 H 2 37.4168 10.2858 3.02097 
3598 1200 O 1 34.3117 6.86095 6.02591 
3599 1200 H 2 35.2673 6.88794 6.07492 
1876 626 O 1 37.3013 11.2214 3.18648 
3249 1083 H 2 35.896 12.3763 2.99316 
70 24 O 1 39.9902 7.08406 4.58677 
71 24 H 2 40.2998 6.85668 5.46351 
72 24 H 2 40.1106 6.28429 4.07481 
1878 626 H 2 38.1351 11.5033 3.56269 
3793 1309 C 3 40.2758 9.48194 1.34257 
1033 345 O 1 45.9946 6.82594 4.51845 
1034 345 H 2 46.7905 7.35068 4.43196 
1035 345 H 2 45.7822 6.56276 3.62299 
2860 954 O 1 2.38475 13.3013 6.01012 
2861 954 H 2 1.5719 12.8109 6.13263 
3757 1273 C 3 5.75494 18.0103 3.20862 
2862 954 H 2 2.10828 14.2165 5.96446 
220 74 O 1 9.60967 13.9296 4.12581 
221 74 H 2 10.5146 14.2262 4.22226 
222 74 H 2 9.18828 14.6112 3.6022 
973 325 O 1 12.2148 14.9234 4.31421 
236 79 H 2 12.4569 15.5806 6.14014 
379 127 O 1 13.9388 13.3162 5.76472 
1620 540 H 2 17.1182 13.1074 5.82779 
3902 1418 C 3 14.7978 13.3432 2.03393 
974 325 H 2 12.83 14.2565 4.61913 
975 325 H 2 12.5964 15.2468 3.49808 
1619 540 H 2 15.6721 12.7258 5.59305 
2815 939 O 1 13.273 16.2864 0.162167 
2817 939 H 2 14.2301 16.2763 0.168631 
380 127 H 2 13.4993 12.5513 6.13634 
1039 347 O 1 23.461 13.3966 0.488118 
1041 347 H 2 23.4387 12.5663 0.963938 
1040 347 H 2 23.2398 14.056 1.14567 
1345 449 O 1 22.0011 17.7611 2.79859 
1346 449 H 2 22.5171 18.1443 3.50795 
1347 449 H 2 21.1293 17.6393 3.17462 
2086 696 O 1 23.2121 15.2746 2.56823 
2087 696 H 2 23.1184 15.0136 3.4844 
2088 696 H 2 22.8196 16.1465 2.52569 
91 31 O 1 28.3029 16.1129 2.39451 
92 31 H 2 28.781 16.0144 1.57116 
93 31 H 2 27.45 15.7122 2.22616 
225 75 H 2 29.6232 13.1957 5.70482 
2302 768 O 1 28.7927 18.2868 4.07038 
2303 768 H 2 28.7512 17.4909 3.5402 
2304 768 H 2 27.9175 18.6681 3.99977 
2311 771 O 1 25.8519 14.9319 1.67011 
2312 771 H 2 25.5792 14.3398 0.969245 
2313 771 H 2 25.033 15.2164 2.07611 
3247 1083 O 1 35.1471 12.9713 2.95598 
3248 1083 H 2 34.6952 12.8407 3.78961 
463 155 O 1 39.661 17.0343 5.11643 
464 155 H 2 38.8947 17.5587 5.34878 
465 155 H 2 40.3379 17.312 5.73353 
3032 1011 H 2 38.3135 15.3586 0.644602 
1681 561 O 1 45.9672 13.8522 0.322879 
1682 561 H 2 46.0054 13.4726 1.20078 
1683 561 H 2 45.0756 13.6745 0.0231859 
2363 788 H 2 47.9739 18.7056 4.43421 
2644 882 O 1 47.3687 17.4332 0.40015 
2646 882 H 2 46.6637 16.7865 0.431176 
3155 1052 H 2 47.8441 18.3308 1.92314 
3798 1314 C 3 45.8477 15.9071 3.75555 
3907 1423 C 3 49.8781 15.6204 3.21192 
2362 788 O 1 48.0667 18.6765 5.38646 
554 185 H 2 3.4451 18.8348 1.04125 
553 185 O 1 2.85958 19.0332 0.310469 
555 185 H 2 1.98355 19.0263 0.696155 
1096 366 O 1 12.0021 21.028 4.91762 
1098 366 H 2 12.0535 20.8548 3.97762 
1097 366 H 2 12.2358 21.9521 5.00451 
280 94 O 1 14.4844 22.7249 1.47509 
281 94 H 2 15.4324 22.8417 1.53655 
282 94 H 2 14.1272 23.6081 1.56742 
205 69 O 1 23.3103 18.9532 4.82268 
206 69 H 2 22.9929 18.7499 5.70255 
207 69 H 2 23.3241 19.9096 4.78752 
376 126 O 1 21.559 23.3649 3.57877 
377 126 H 2 21.427 22.6209 2.99119 
378 126 H 2 22.5094 23.4326 3.67046 
403 135 O 1 19.6577 23.1907 5.73054 
404 135 H 2 19.039 22.6066 5.29202 
405 135 H 2 20.3655 23.3097 5.09726 
2455 819 O 1 21.5513 20.4301 1.87409 
2456 819 H 2 21.3611 20.3643 0.938291 
2457 819 H 2 21.7529 19.5334 2.1416 
2971 991 O 1 30.5567 19.8636 5.56268 
3010 1004 O 1 26.5748 23.2528 1.55979 
3011 1004 H 2 26.5005 22.6097 0.854693 
3012 1004 H 2 26.8312 24.0631 1.11952 
3831 1347 C 3 29.7778 20.9338 1.71314 
1026 342 H 2 31.1579 21.5848 5.35557 
2973 991 H 2 30.0071 19.3044 5.01358 
1025 342 H 2 31.9044 22.5453 4.45439 
19 7 O 1 33.1427 18.8452 5.42415 
20 7 H 2 32.2379 19.1357 5.53926 
21 7 H 2 33.3788 19.1386 4.54413 
427 143 O 1 35.2863 21.351 1.34804 
428 143 H 2 34.8235 20.6342 1.78193 
429 143 H 2 36.1925 21.2655 1.64401 
515 172 H 2 32.909 23.2372 6.20729 
1024 342 O 1 31.4504 22.4943 5.2955 
1984 662 O 1 33.5098 19.7977 2.7987 
1985 662 H 2 32.8529 19.3038 2.30799 
1986 662 H 2 33.1501 20.6828 2.85725 
2599 867 O 1 32.9654 22.5059 2.7039 
2600 867 H 2 33.8437 22.46 2.32608 
2601 867 H 2 32.4749 23.0673 2.10344 
3852 1368 C 3 43.6477 19.2554 4.54265 
2364 788 H 2 48.9742 18.9353 5.54718 
3154 1052 O 1 47.9955 18.9514 2.63604 
3156 1052 H 2 47.6548 19.7831 2.30676 
320 107 H 2 5.01951 0.149824 7.79327 
671 224 H 2 4.56527 5.89898 8.28079 
755 252 H 2 7.19988 3.93698 11.3596 
344 115 H 2 12.4811 2.68309 12.4511 
454 152 O 1 7.20308 0.511027 10.7464 
455 152 H 2 7.00492 0.487144 9.81019 
456 152 H 2 7.37737 1.43388 10.9313 
754 252 O 1 7.6851 3.11238 11.3886 
756 252 H 2 7.99233 3.04635 12.2927 
1981 661 O 1 10.6998 5.29086 6.65998 
1982 661 H 2 11.2707 5.80624 7.22977 
1983 661 H 2 9.82982 5.37806 7.04964 
3322 1108 O 1 6.82472 0.588892 7.96315 
3323 1108 H 2 7.11166 1.45715 7.68027 
3888 1404 C 3 11.5523 1.10889 7.38716 
469 157 O 1 15.9019 0.296882 7.93571 
470 157 H 2 16.4501 0.484929 8.6975 
471 157 H 2 16.2419 0.869482 7.24813 
1442 481 H 2 18.3455 2.56819 7.55242 
3172 1058 O 1 18.3139 4.5658 10.3008 
3173 1058 H 2 18.6077 3.99765 9.5887 
3174 1058 H 2 17.4405 4.24218 10.5213 
3884 1400 C 3 14.8073 4.80871 7.32598 
3898 1414 C 3 17.9585 0.69427 11.1684 
3811 1327 C 3 24.2576 0.422721 10.0879 
1244 415 H 2 20.8539 2.48529 12.4472 
1441 481 O 1 18.9273 2.77471 8.28389 
1443 481 H 2 19.7908 2.48043 7.99415 
2372 791 H 2 24.7574 2.66212 6.66228 
2323 775 O 1 26.4205 3.25946 8.93694 
2324 775 H 2 26.2538 2.98537 9.83879 
2325 775 H 2 27.3118 3.60805 8.95287 
2876 959 H 2 30.8379 0.908935 8.18661 
3829 1345 C 3 29.8771 4.75736 7.44895 
2875 959 O 1 30.7123 0.551803 7.30745 
803 268 H 2 30.6027 0.130901 12.4615 
3619 1207 O 1 31.3411 1.82619 9.78529 
3620 1207 H 2 31.8205 2.65429 9.81091 
3621 1207 H 2 31.3937 1.49062 10.6802 
100 34 O 1 34.8399 4.60093 11.628 
102 34 H 2 35.5185 3.92586 11.6366 
232 78 O 1 32.6223 4.38719 10.0359 
233 78 H 2 31.9921 4.89535 10.5468 
234 78 H 2 33.4055 4.35428 10.5851 
1231 411 O 1 36.9804 2.89785 10.9445 
2877 959 H 2 31.2948 1.07022 6.75234 
3927 1443 C 3 34.917 0.624248 7.79425 
1232 411 H 2 37.0318 3.17817 10.0307 
51 17 H 2 33.3107 5.78957 9.00678 
1218 406 H 2 35.4515 6.13203 10.9836 
802 268 O 1 31.4958 0.449885 12.3323 
1506 502 H 2 39.1152 0.195459 11.4002 
1505 502 H 2 39.1721 0.405999 9.90205 
1233 411 H 2 37.5592 2.13718 10.9951 
1507 503 O 1 42.6682 3.22948 7.01672 
1508 503 H 2 42.8209 4.08521 7.41753 
1509 503 H 2 42.2014 2.73039 7.687 
1828 610 O 1 42.0106 1.57699 9.16368 
1829 610 H 2 41.6735 1.91471 9.99346 
1830 610 H 2 42.962 1.64241 9.24669 
3415 1139 O 1 43.4998 5.56179 8.14636 
3469 1157 O 1 43.6068 6.10072 12.3385 
1504 502 O 1 38.8404 0.798614 10.7096 
3388 1130 O 1 46.6156 1.53485 7.06799 
3389 1130 H 2 47.1692 0.768909 6.91593 
64 22 O 1 44.628 2.43401 8.76729 
65 22 H 2 44.0649 2.75708 8.06391 
66 22 H 2 45.3806 2.05176 8.31583 
2164 722 O 1 47.8162 4.46002 10.6207 
2165 722 H 2 48.4187 5.02095 11.1091 
2166 722 H 2 48.324 3.67144 10.4296 
2533 845 O 1 45.066 4.70769 10.2886 
2534 845 H 2 46.0117 4.73406 10.4343 
2535 845 H 2 44.9131 3.86737 9.8565 
3417 1139 H 2 44.0282 5.40242 8.92842 
3416 1139 H 2 44.0516 6.11371 7.59223 
3471 1157 H 2 44.0553 5.58352 11.6695 
670 224 O 1 5.06964 6.49523 8.83425 
658 220 O 1 4.32032 9.052 8.09911 
659 220 H 2 5.25865 9.17263 7.95349 
660 220 H 2 3.93613 9.90812 7.91018 
672 224 H 2 4.69508 7.35877 8.66034 
781 261 O 1 4.15146 11.8472 7.46349 
782 261 H 2 4.40533 12.3826 8.21527 
2258 753 H 2 0.363703 10.8388 6.96736 
783 261 H 2 3.51769 12.3851 6.9889 
1003 335 O 1 6.92485 9.52746 7.5287 
1004 335 H 2 7.24431 8.70555 7.15636 
1005 335 H 2 6.72489 10.0736 6.76847 
3622 1208 O 1 7.77681 6.97346 8.55649 
3623 1208 H 2 6.87336 6.68449 8.685 
3624 1208 H 2 7.80137 7.85603 8.92622 
1826 609 H 2 15.3423 11.1349 12.1129 
2706 902 H 2 17.7483 8.40814 11.7378 
3735 1251 C 3 14.5635 7.26082 10.7933 
1393 465 O 1 18.4794 7.31335 10.4956 
1395 465 H 2 18.4585 6.3566 10.4749 
2704 902 O 1 17.5272 9.04048 12.4215 
2919 973 H 2 22.2207 11.1337 7.02613 
3917 1433 C 3 24.0312 7.35547 9.89634 
1394 465 H 2 18.8462 7.56385 9.64772 
2871 957 H 2 24.0684 10.4365 11.6416 
2917 973 O 1 23.0831 11.1841 7.4384 
2918 973 H 2 23.0848 12.0287 7.8888 
2869 957 O 1 24.4627 10.7656 12.4494 
3583 1195 O 1 31.2425 11.0455 7.91483 
3585 1195 H 2 30.6443 11.5635 7.37628 
3885 1401 C 3 26.4738 11.8889 8.76139 
3938 1454 C 3 26.3219 6.74683 6.38449 
3584 1195 H 2 31.3467 10.2237 7.4353 
49 17 O 1 33.7026 6.58826 8.65362 
50 17 H 2 34.4018 6.8054 9.27022 
1216 406 O 1 35.6808 6.95671 10.5552 
1217 406 H 2 36.5873 7.11896 10.8164 
2482 828 O 1 32.5066 11.1383 10.3808 
2483 828 H 2 32.015 11.0628 9.56295 
2484 828 H 2 33.0624 11.9077 10.2566 
3600 1200 H 2 34.0252 6.83558 6.93887 
2239 747 O 1 32.8652 9.35071 12.4506 
2240 747 H 2 33.4003 8.65484 12.0689 
2241 747 H 2 32.7666 9.99139 11.7463 
459 153 H 2 42.5238 11.6201 11.7095 
2460 820 H 2 46.2246 12.0798 10.5072 
3729 1245 C 3 44.7689 9.96185 6.64416 
3139 1047 O 1 4.45148 17.5897 7.00579 
3140 1047 H 2 5.26636 18.0015 7.29321 
3141 1047 H 2 3.76882 18.0283 7.51357 
3832 1348 C 3 0.197665 18.1164 9.65203 
3046 1016 O 1 12.3953 15.9538 12.2501 
3048 1016 H 2 11.9718 15.8427 11.3989 
3727 1243 C 3 10.2803 12.5162 7.54267 
3932 1448 C 3 8.77302 15.2934 10.4635 
235 79 O 1 12.8836 15.5343 6.99572 
237 79 H 2 12.9803 16.4477 7.26532 
381 127 H 2 13.7305 14.0294 6.36816 
3074 1025 H 2 17.9384 16.2875 8.54115 
3073 1025 O 1 18.8087 16.1768 8.15834 
3075 1025 H 2 19.2124 17.0421 8.22597 
3790 1306 C 3 18.9841 15.8441 12.1303 
52 18 O 1 22.8983 13.6616 8.68999 
53 18 H 2 23.5598 14.1519 9.17817 
54 18 H 2 22.1121 14.2054 8.73857 
1284 428 H 2 24.448 15.8805 10.7547 
1498 500 O 1 22.3916 18.4824 7.35746 
1499 500 H 2 22.9419 18.5904 8.13317 
1500 500 H 2 21.4954 18.53 7.69045 
1282 428 O 1 24.74 15.1537 10.2044 
1928 643 H 2 24.9587 13.889 11.6642 
550 184 O 1 19.9187 18.7064 8.54595 
1283 428 H 2 25.6096 15.4158 9.90226 
3202 1068 O 1 29.0762 18.1697 10.1359 
3203 1068 H 2 29.9677 17.863 10.3015 
2081 694 H 2 34.3561 16.6595 7.20875 
2080 694 O 1 34.3764 17.5545 7.54743 
2082 694 H 2 33.9654 18.0802 6.86115 
3040 1014 O 1 35.2045 17.5701 10.2631 
3041 1014 H 2 34.9064 17.6455 9.35658 
3042 1014 H 2 35.1736 18.4651 10.6011 
774 258 H 2 43.1655 17.8346 7.64995 
1549 517 O 1 41.3807 17.619 7.27637 
1550 517 H 2 41.1362 18.4566 7.66984 
1551 517 H 2 40.89 16.9667 7.77626 
488 163 H 2 46.8175 18.7505 10.6849 
772 258 O 1 44.0488 17.8696 8.0171 
773 258 H 2 44.292 16.9527 8.14518 
2056 686 O 1 46.7303 14.9134 12.0275 
2058 686 H 2 46.4166 14.2933 11.3692 
2458 820 O 1 46.072 12.9481 10.1344 
2459 820 H 2 46.5556 12.943 9.30834 
3920 1436 C 3 47.7064 15.4765 7.50556 
1263 421 H 2 45.6964 18.7379 7.53006 
37 13 O 1 45.6934 17.5005 11.6296 
38 13 H 2 44.9833 18.03 11.2669 
39 13 H 2 45.8888 17.9071 12.4739 
2057 686 H 2 46.2892 15.7352 11.8124 
1141 381 O 1 2.57882 20.6785 12.1792 
1143 381 H 2 1.70351 20.9964 12.4006 
2573 858 H 2 5.25663 20.8561 10.5399 
2784 928 H 2 6.04316 24.2379 9.44665 
2572 858 O 1 6.09707 20.8469 10.0819 
2904 968 H 2 6.41087 19.6372 8.7775 
1051 351 O 1 9.15535 24.7401 9.74965 
1053 351 H 2 9.83034 24.0627 9.79172 
2574 858 H 2 6.31411 21.7712 9.9601 
2782 928 O 1 6.63923 23.5462 9.73367 
2902 968 O 1 6.58706 19.0214 8.06624 
2903 968 H 2 7.50367 19.175 7.83726 
3876 1392 C 3 12.1796 22.1445 12.0999 
2783 928 H 2 7.49996 23.9644 9.75455 
2454 818 H 2 18.3157 24.0985 10.9257 
2855 952 H 2 16.2558 24.7748 9.83846 
3479 1160 H 2 18.5207 24.4874 6.52954 
3480 1160 H 2 17.6477 24.6299 7.7582 
2854 952 O 1 17.1986 24.7799 9.67325 
552 184 H 2 19.9823 18.8113 9.49527 
1073 358 H 2 19.8635 19.4542 12.1331 
1074 358 H 2 20.2811 20.3346 10.9745 
2452 818 O 1 18.94 23.7737 11.5745 
551 184 H 2 19.7737 19.5931 8.21573 
1072 358 O 1 20.2478 19.4207 11.2571 
1081 361 O 1 24.588 23.7272 8.97922 
1083 361 H 2 23.8086 23.9384 8.46534 
2453 818 H 2 19.6022 24.4621 11.636 
2548 850 O 1 22.8844 19.7326 12.1737 
2549 850 H 2 22.013 19.6064 11.7982 
2923 975 O 1 19.8039 21.3631 7.87621 
2924 975 H 2 20.1147 21.736 8.70115 
2925 975 H 2 19.8792 22.0792 7.24559 
3106 1036 O 1 23.6245 24.9188 11.4342 
3451 1151 O 1 20.6191 21.9832 10.4894 
3452 1151 H 2 21.4277 22.1528 10.9728 
3453 1151 H 2 19.9742 22.5675 10.8881 
1082 361 H 2 24.2921 23.7606 9.8889 
2298 766 H 2 24.4075 20.9441 12.461 
3204 1068 H 2 29.1573 18.7427 9.37338 
361 121 O 1 29.6713 22.1595 9.36947 
362 121 H 2 30.2426 22.4434 10.0831 
363 121 H 2 29.804 22.8119 8.68171 
760 254 O 1 29.179 19.8922 7.982 
761 254 H 2 28.2306 19.9478 7.86469 
762 254 H 2 29.4018 20.6626 8.50452 
1192 398 O 1 29.9595 23.8698 7.22692 
1193 398 H 2 30.4412 23.4086 6.54019 
1194 398 H 2 29.0803 23.9858 6.86683 
2297 766 H 2 25.867 21.0141 12.0652 
2972 991 H 2 30.1444 19.8319 6.42597 
3899 1415 C 3 36.6128 20.2838 6.61948 
246 82 H 2 37.3357 22.2462 11.5587 
445 149 O 1 36.3475 23.5078 12.4094 
447 149 H 2 35.5909 23.292 11.8642 
514 172 O 1 33.5779 23.7723 6.63446 
516 172 H 2 33.1038 24.5406 6.95234 
1306 436 O 1 34.3027 22.6886 10.9052 
1307 436 H 2 34.4904 21.7557 11.009 
1308 436 H 2 34.638 22.9055 10.0353 
3265 1089 O 1 35.2839 20.1694 11.4549 
3266 1089 H 2 36.1661 20.4804 11.2517 
3358 1120 O 1 35.4656 23.2217 8.50849 
3359 1120 H 2 34.8083 23.4507 7.85139 
3360 1120 H 2 35.9604 22.504 8.11298 
3267 1089 H 2 35.2454 20.1651 12.4114 
446 149 H 2 36.4931 24.4418 12.259 
244 82 O 1 37.6753 21.4657 11.1209 
245 82 H 2 38.4837 21.759 10.7005 
1045 349 O 1 41.9238 20.8227 7.84638 
1046 349 H 2 42.4156 21.2816 8.5274 
1047 349 H 2 42.1539 21.2777 7.03629 
1916 639 H 2 43.3562 22.448 10.6108 
3819 1335 C 3 39.4415 23.6006 8.46801 
1915 639 O 1 43.5147 22.0492 9.7552 
1262 421 H 2 47.0276 18.9564 6.843 
3371 1124 H 2 45.4525 24.7594 8.60052 
1639 547 O 1 44.2715 19.4914 10.2795 
1641 547 H 2 44.1042 19.0048 9.47232 
487 163 O 1 46.9597 19.6201 10.3112 
489 163 H 2 46.981 19.4744 9.3654 
1261 421 O 1 46.561 19.1271 7.66115 
1640 547 H 2 45.2093 19.6819 10.2548 
1917 639 H 2 43.8075 21.1602 9.95526 
3065 1022 H 2 47.7957 20.5256 11.7495 
3782 1298 C 3 49.2147 24.5381 7.05975 
3276 1092 H 2 5.48176 1.40035 15.626 
3274 1092 O 1 6.26992 1.58905 15.1167 
3275 1092 H 2 6.27934 0.919857 14.4323 
118 40 O 1 8.41662 2.90847 14.0072 
119 40 H 2 7.67688 2.51999 14.4742 
120 40 H 2 9.1901 2.55776 14.4487 
2731 911 O 1 10.6877 1.88362 15.2295 
2732 911 H 2 11.3372 2.04256 14.5446 
2733 911 H 2 11.1049 2.19495 16.0328 
343 115 O 1 12.6071 2.38091 13.3506 
345 115 H 2 13.3277 1.75344 13.2942 
523 175 O 1 14.622 0.517523 13.2221 
524 175 H 2 15.1983 0.475504 13.9853 
3821 1337 C 3 16.0485 5.79217 17.4085 
1243 415 O 1 21.7644 2.63456 12.7023 
3241 1081 O 1 23.4589 4.82844 12.7515 
3242 1081 H 2 23.9996 4.45028 13.4449 
3243 1081 H 2 22.8228 4.1442 12.5431 
1245 415 H 2 21.7594 2.57172 13.6574 
1267 423 O 1 24.4418 4.1876 15.2721 
1268 423 H 2 24.1236 5.08844 15.3315 
1269 423 H 2 23.6624 3.64848 15.407 
3442 1148 O 1 20.6682 5.33223 15.5105 
3444 1148 H 2 19.9109 5.67365 15.035 
3511 1171 O 1 21.9637 2.9489 15.5001 
3512 1171 H 2 21.4589 3.76167 15.5277 
3513 1171 H 2 21.8411 2.56061 16.3664 
3443 1148 H 2 21.3629 5.96968 15.3449 
3689 1230 H 2 23.143 6.10475 13.9772 
1453 485 O 1 26.7534 3.77225 16.8091 
1454 485 H 2 25.972 3.87565 16.266 
1455 485 H 2 26.8767 4.629 17.2178 
2626 876 O 1 27.9923 1.49425 17.9018 
2627 876 H 2 28.2487 0.929323 17.1729 
2628 876 H 2 27.5778 2.24998 17.4854 
101 34 H 2 34.5461 4.65753 12.5372 
421 141 O 1 33.5797 5.01307 14.0864 
422 141 H 2 33.1298 4.2679 14.4846 
423 141 H 2 33.475 5.72302 14.7198 
2554 852 O 1 34.5747 4.92494 17.6222 
2555 852 H 2 34.1675 5.60881 17.0906 
2556 852 H 2 35.2445 5.38281 18.1302 
3178 1060 O 1 33.9175 1.30655 17.6035 
3179 1060 H 2 34.1126 2.24237 17.6525 
3180 1060 H 2 34.0153 0.993516 18.5027 
1761 587 H 2 32.2523 0.225965 15.6234 
1760 587 H 2 31.6455 0.129826 14.2398 
76 26 O 1 42.7033 4.10694 18.0234 
77 26 H 2 41.945 3.92974 17.4667 
78 26 H 2 43.1504 4.83669 17.5947 
1720 574 O 1 40.6163 3.71066 16.299 
1721 574 H 2 39.9054 4.26231 15.9725 
1722 574 H 2 40.5723 2.91965 15.7618 
3886 1402 C 3 42.824 2.36459 12.7157 
2265 755 H 2 43.7475 2.60934 17.7876 
3911 1427 C 3 40.2579 0.233484 15.0657 
2263 755 O 1 44.3669 1.887 17.6842 
2264 755 H 2 45.0835 2.09774 18.2829 
1195 399 O 1 3.04008 10.9226 17.8434 
1196 399 H 2 2.38937 11.3033 17.2535 
1197 399 H 2 3.80689 10.773 17.2903 
3280 1094 O 1 5.26832 10.5726 16.2616 
3281 1094 H 2 5.84553 10.2294 16.9437 
3282 1094 H 2 5.85975 10.8336 15.5557 
3862 1378 C 3 9.01745 6.36817 15.1558 
1225 409 O 1 9.5557 10.3158 17.9859 
1226 409 H 2 9.83595 10.142 17.0873 
1227 409 H 2 8.64424 10.0247 18.0136 
1367 456 H 2 12.2144 9.8347 13.3882 
2734 912 O 1 6.87436 9.73957 18.3044 
2736 912 H 2 6.54849 8.92324 18.6834 
2705 902 H 2 18.3733 9.33768 12.7563 
1366 456 O 1 12.6192 10.6666 13.6338 
3933 1449 C 3 12.8425 8.55999 18.3594 
1368 456 H 2 13.5462 10.5537 13.4238 
1825 609 O 1 15.2219 10.4968 12.8161 
1827 609 H 2 15.9725 9.90807 12.737 
630 210 H 2 12.6124 12.4678 13.284 
2870 957 H 2 24.7716 9.98103 12.9026 
3688 1230 O 1 23.1956 6.61191 14.7873 
3690 1230 H 2 23.8429 7.29249 14.6027 
3830 1346 C 3 21.0295 8.58171 12.9735 
1572 524 H 2 30.0203 10.4025 12.5084 
1570 524 O 1 30.1784 9.66326 13.0956 
1571 524 H 2 31.1058 9.45741 12.9781 
2062 688 O 1 27.9275 8.52746 14.2931 
2063 688 H 2 28.2692 8.29408 15.1563 
2064 688 H 2 28.6764 8.90699 13.8332 
2824 942 O 1 25.2698 8.23812 13.5579 
2825 942 H 2 26.1584 8.39962 13.8752 
2826 942 H 2 25.3751 7.57302 12.8776 
953 318 H 2 30.9297 8.08647 18.699 
1162 388 O 1 33.2879 6.97655 16.1526 
1163 388 H 2 33.4052 7.81246 15.7013 
1164 388 H 2 32.6599 7.16625 16.8497 
3728 1244 C 3 37.2004 8.43723 16.4185 
952 318 O 1 31.6129 7.53067 18.3242 
458 153 H 2 41.7083 10.7463 12.6386 
457 153 O 1 42.0651 11.63 12.5495 
484 162 O 1 39.2077 12.217 16.2663 
486 162 H 2 38.7311 12.2914 15.4396 
568 190 O 1 42.94 11.5891 15.1243 
569 190 H 2 42.7479 11.7337 14.1977 
570 190 H 2 42.2661 10.9753 15.4161 
796 266 O 1 40.9107 9.9896 16.0391 
797 266 H 2 40.1944 10.6212 16.1046 
798 266 H 2 41.3457 10.0308 16.8908 
2722 908 O 1 41.1064 9.1 13.3525 
2723 908 H 2 40.9811 9.23408 14.292 
2724 908 H 2 41.4721 8.21819 13.2827 
430 144 O 1 42.1491 10.7912 18.3489 
431 144 H 2 42.083 11.684 18.0102 
3470 1157 H 2 44.3047 6.59728 12.7658 
853 285 O 1 48.3959 7.46998 13.4438 
854 285 H 2 47.6872 7.37958 14.0809 
855 285 H 2 48.8836 8.24041 13.7351 
2944 982 O 1 44.7157 9.52197 15.6743 
2945 982 H 2 44.2153 10.271 15.3507 
2946 982 H 2 44.6254 9.56623 16.6262 
606 202 H 2 2.89957 18.5762 16.8888 
2158 720 O 1 4.01661 17.7856 18.0631 
3845 1361 C 3 0.744724 14.1314 17.8842 
2159 720 H 2 4.95491 17.9742 18.0475 
3767 1283 C 3 8.89747 18.2117 14.7418 
3047 1016 H 2 12.5174 15.0619 12.5756 
628 210 O 1 12.8213 13.4014 13.2528 
629 210 H 2 13.2572 13.5779 14.0865 
940 314 O 1 18.0142 15.3673 18.4936 
942 314 H 2 17.514 16.1387 18.2274 
1023 341 H 2 18.6664 14.7664 15.2869 
941 314 H 2 18.5363 15.1423 17.7236 
97 33 O 1 13.7698 18.1386 13.2915 
98 33 H 2 13.3452 17.3642 12.9225 
99 33 H 2 13.0533 18.754 13.4469 
1929 643 H 2 24.8989 12.632 12.5057 
1021 341 O 1 19.2959 14.9939 15.9712 
141 47 H 2 23.1796 14.8922 14.5892 
1022 341 H 2 19.7229 15.7881 15.6501 
2014 672 O 1 21.717 13.9124 14.988 
2015 672 H 2 21.7458 12.9651 14.854 
2016 672 H 2 20.8864 14.0658 15.4384 
2515 839 O 1 22.8278 17.8821 14.215 
2516 839 H 2 23.2568 17.0264 14.2073 
2517 839 H 2 22.8251 18.1409 15.1366 
139 47 O 1 23.9477 15.3946 14.3172 
140 47 H 2 24.4382 14.7966 13.7533 
1927 643 O 1 25.064 13.5732 12.5616 
1010 337 H 2 37.4357 14.817 17.4556 
3013 1005 O 1 35.9221 15.7522 16.9913 
3014 1005 H 2 35.5933 16.1412 16.1808 
3015 1005 H 2 35.2313 15.9157 17.6334 
3794 1310 C 3 31.6149 14.7046 17.6113 
485 162 H 2 38.7907 12.8579 16.8422 
1009 337 O 1 38.2037 14.2919 17.6809 
1011 337 H 2 38.9372 14.9046 17.6285 
1255 419 O 1 40.5872 15.672 17.2983 
1256 419 H 2 40.9072 16.1554 16.5366 
1257 419 H 2 41.0881 14.8563 17.2927 
3523 1175 O 1 41.702 13.1582 17.0013 
3524 1175 H 2 40.8263 12.8751 16.7381 
3525 1175 H 2 42.2794 12.8198 16.3169 
2464 822 O 1 48.532 15.2212 14.0619 
2465 822 H 2 49.3028 14.7739 13.7128 
2466 822 H 2 47.8564 15.0897 13.3966 
2695 899 O 1 48.4293 17.7284 15.1336 
2696 899 H 2 48.4348 16.8208 14.8293 
2697 899 H 2 49.3238 18.0361 14.9868 
3781 1297 C 3 45.9489 14.5744 16.765 
2954 985 H 2 47.0738 18.472 14.3513 
604 202 O 1 2.2604 19.0614 16.367 
605 202 H 2 1.5422 19.2413 16.9736 
1142 381 H 2 3.03887 20.6386 13.0176 
1606 536 O 1 3.22391 21.1314 14.864 
1607 536 H 2 2.96563 20.3642 15.3748 
1608 536 H 2 2.39805 21.5627 14.6443 
2584 862 O 1 6.02126 21.4896 15.2436 
2586 862 H 2 5.06591 21.4336 15.2231 
2416 806 O 1 0.370013 21.7466 13.6635 
2418 806 H 2 0.10302 22.6577 13.7852 
3492 1164 H 2 7.16131 24.959 18.7146 
390 130 H 2 8.79565 24.4997 16.6452 
2409 803 H 2 8.88135 18.8395 18.3201 
1156 386 O 1 10.6548 21.5056 15.7842 
1157 386 H 2 9.77309 21.4483 16.1524 
1158 386 H 2 11.2004 21.0022 16.3885 
2407 803 O 1 8.12415 19.2867 18.6981 
2408 803 H 2 8.04287 20.0932 18.1889 
2585 862 H 2 6.29214 21.2979 14.3457 
3496 1166 O 1 8.15748 21.5007 17.0113 
3497 1166 H 2 7.39966 21.4773 16.4271 
3498 1166 H 2 8.23504 22.4198 17.2671 
389 130 H 2 9.22032 24.4905 18.0983 
388 130 O 1 8.52059 24.2019 17.5123 
691 231 O 1 13.3077 19.3825 18.4615 
693 231 H 2 14.0618 19.7347 17.9886 
2146 716 O 1 18.6397 22.1362 16.2115 
2147 716 H 2 17.9158 22.3573 15.6255 
2148 716 H 2 18.5516 22.7473 16.9429 
2085 695 H 2 18.6598 24.8244 18.151 
2083 695 O 1 18.2881 23.9558 18.3049 
2550 850 H 2 22.9295 19.1022 12.8926 
971 324 H 2 24.9398 24.5544 12.6663 
3571 1191 O 1 20.35 20.8046 14.4335 
3572 1191 H 2 21.193 21.2541 14.4933 
3573 1191 H 2 19.7971 21.2446 15.0791 
28 10 O 1 28.0382 19.5563 17.1182 
29 10 H 2 27.3852 19.1262 16.5661 
30 10 H 2 27.6317 20.386 17.3686 
397 133 O 1 29.516 22.3043 15.0702 
398 133 H 2 29.3333 21.4678 14.6423 
399 133 H 2 29.8401 22.0641 15.9382 
970 324 O 1 25.7232 24.2213 13.1041 
972 324 H 2 25.672 23.2714 12.9977 
1597 533 O 1 27.1548 23.686 15.5824 
1598 533 H 2 26.6862 23.9231 14.7822 
1599 533 H 2 27.9921 23.3377 15.276 
2287 763 O 1 27.3229 22.087 17.827 
2288 763 H 2 28.2562 22.2094 18.0008 
2289 763 H 2 27.1387 22.6656 17.0871 
2296 766 O 1 25.194 21.4803 12.5612 
2950 984 O 1 30.1522 21.3088 17.5869 
2951 984 H 2 29.6134 20.5221 17.5035 
2952 984 H 2 30.8907 21.0372 18.1319 
3769 1285 C 3 31.8124 20.6187 12.7128 
1987 663 O 1 35.4847 21.6587 17.1642 
1988 663 H 2 35.3746 21.721 16.2154 
1989 663 H 2 36.3198 21.2053 17.2796 
2752 918 O 1 36.2095 23.8544 18.5782 
2818 940 O 1 35.1753 21.9166 14.3905 
2819 940 H 2 35.694 22.492 13.8282 
2820 940 H 2 34.2672 22.159 14.2094 
2183 728 H 2 34.2473 20.9694 18.4588 
2753 918 H 2 35.8376 23.1569 18.0385 
1774 592 O 1 37.974 20.5539 17.5554 
1775 592 H 2 38.3045 20.187 18.3753 
1776 592 H 2 38.4573 20.089 16.8724 
3873 1389 C 3 43.0277 23.2946 13.7866 
3064 1022 O 1 47.9996 20.7553 12.656 
2417 806 H 2 49.5886 21.3109 13.3232 
2953 985 O 1 46.3434 18.9184 13.923 
2955 985 H 2 45.783 19.2072 14.6432 
3066 1022 H 2 47.4254 20.1968 13.1801 
3808 1324 C 3 47.0161 23.5662 14.9518 
3816 1332 C 3 44.4425 22.084 17.8265 
342 114 H 2 1.50312 4.65869 24.8192 
341 114 H 2 2.17451 5.91522 24.3071 
1714 572 O 1 11.9415 5.54606 24.489 
1716 572 H 2 11.2137 4.94304 24.3377 
3709 1237 O 1 9.96057 3.59126 24.1346 
3710 1237 H 2 9.11948 3.76455 23.7118 
3711 1237 H 2 10.4624 3.10507 23.4804 
3759 1275 C 3 11.3586 0.885988 19.2217 
3871 1387 C 3 8.8888 4.56978 19.4974 
136 46 O 1 15.0298 1.8132 18.8699 
137 46 H 2 15.5167 1.44419 19.6068 
730 244 O 1 13.9551 4.17385 20.0333 
732 244 H 2 13.245 4.45658 19.457 
138 46 H 2 14.7398 2.67126 19.1795 
731 244 H 2 14.3063 4.9863 20.3977 
1247 416 H 2 16.855 1.9005 23.6763 
1801 601 O 1 16.0605 1.09647 22.2376 
1803 601 H 2 15.198 1.51125 22.254 
1819 607 O 1 13.6887 2.53141 22.2658 
1820 607 H 2 13.9049 3.14207 22.9705 
1821 607 H 2 13.7567 3.05359 21.4664 
1802 601 H 2 15.8783 0.160472 22.321 
1246 416 O 1 17.1888 2.3181 24.4703 
1248 416 H 2 17.6628 1.62259 24.9262 
3778 1294 C 3 19.6974 5.60211 19.4605 
250 84 O 1 27.9245 1.40281 20.7073 
251 84 H 2 27.9458 1.37006 19.7509 
252 84 H 2 27.6766 2.30463 20.9111 
1174 392 O 1 28.1611 5.37359 21.3646 
1175 392 H 2 28.2147 6.20406 21.8376 
1176 392 H 2 27.9263 5.62142 20.4704 
2795 932 H 2 31.2563 1.29427 22.2276 
2794 932 O 1 31.823 1.75427 22.8469 
2796 932 H 2 31.4686 2.64274 22.8821 
2386 796 O 1 33.8934 0.750805 24.6268 
2387 796 H 2 33.2376 1.12116 24.036 
2388 796 H 2 34.6449 1.33877 24.5501 
992 331 H 2 41.3966 2.41473 24.1398 
3220 1074 O 1 41.881 4.23874 20.6814 
3221 1074 H 2 42.1781 4.17239 19.7739 
3222 1074 H 2 41.5291 5.12593 20.7544 
3304 1102 O 1 41.516 2.07127 22.357 
3305 1102 H 2 40.6195 1.87411 22.0857 
3306 1102 H 2 41.7687 2.82362 21.8219 
913 305 O 1 48.4589 2.40555 22.5234 
914 305 H 2 49.0368 1.76431 22.1098 
915 305 H 2 48.434 2.14705 23.4447 
726 242 H 2 3.50444 6.26934 22.2173 
724 242 O 1 2.97236 6.75421 22.8482 
725 242 H 2 2.71629 7.55113 22.3839 
1085 362 H 2 5.94738 6.95191 23.0688 
1461 487 H 2 4.23983 7.17158 24.0611 
2668 890 O 1 2.39341 9.01412 21.3786 
2669 890 H 2 1.7864 9.70098 21.6543 
2670 890 H 2 2.72078 9.30989 20.5291 
3460 1154 O 1 5.81751 7.57399 19.6229 
3461 1154 H 2 5.43765 6.78688 19.2325 
3462 1154 H 2 5.97886 7.33525 20.5357 
843 281 H 2 5.71509 12.1481 20.0224 
1459 487 O 1 5.03589 7.23451 24.5889 
2735 912 H 2 6.68721 10.4037 18.9679 
239 80 H 2 6.735 11.1095 23.7003 
238 80 O 1 6.5938 11.8101 23.0637 
240 80 H 2 7.45591 12.2111 22.9529 
558 186 H 2 9.24464 12.4297 21.9031 
841 281 O 1 6.44684 11.6042 20.3137 
842 281 H 2 6.36068 11.5764 21.2667 
1084 362 O 1 6.37922 6.80056 22.2281 
1086 362 H 2 7.2791 7.09735 22.3637 
1660 554 O 1 9.21838 11.2 20.5812 
1661 554 H 2 9.56063 10.9093 19.7359 
1662 554 H 2 8.27799 11.3044 20.4363 
1873 625 O 1 14.5814 6.607 21.1697 
1874 625 H 2 15.1525 7.3724 21.1039 
1875 625 H 2 14.0398 6.77728 21.9404 
3580 1194 O 1 16.1449 8.94533 21.1934 
3581 1194 H 2 16.2974 9.55276 20.4696 
3582 1194 H 2 16.5435 9.37138 21.9523 
1375 459 O 1 20.3843 7.66957 22.8329 
1376 459 H 2 19.7418 7.10106 22.4085 
1377 459 H 2 20.4982 7.29339 23.7057 
3475 1159 O 1 22.4802 9.03843 21.5242 
3476 1159 H 2 21.9832 9.78434 21.1882 
3477 1159 H 2 21.8317 8.50566 21.9844 
3737 1253 C 3 24.4398 11.8437 19.5155 
3228 1076 H 2 24.8807 8.63351 20.855 
202 68 O 1 27.4764 6.88598 19.0044 
204 68 H 2 28.2072 7.50142 19.0627 
203 68 H 2 26.7427 7.34538 19.4128 
1369 457 O 1 27.8249 9.36314 24.4913 
1371 457 H 2 27.6278 10.2587 24.7659 
2449 817 O 1 28.1352 8.11325 22.0553 
2450 817 H 2 28.0708 8.51731 22.9207 